version 3
run General-117-20230611-05:41:41-416636
attr configname General
attr datetime 20230611-05:41:41
attr datetimef 20230611-054141
attr experiment General
attr inifile omnetpp.ini
attr iterationvars $N=91
attr iterationvarsd N=91
attr iterationvarsf N=91-
attr measurement $N=91
attr network LN
attr processid 416636
attr repetition 1
attr replication #1
attr resultdir results
attr runnumber 117
attr seedset 117
itervar N 91
config network LN
config sim-time-limit 250000s
config **.tic[*].hopCount.result-recording-modes +vector
config *.numCentralNodes 91
config repeat 4

vector 0 LN.lnd[15] hopCount:vector ETV
attr interpolationmode none
attr recordingmode vector
attr source arrival
attr title "hop count"
vector 1 LN.lnd[1] hopCount:vector ETV
attr interpolationmode none
attr recordingmode vector
attr source arrival
attr title "hop count"
vector 2 LN.lnd[8] hopCount:vector ETV
attr interpolationmode none
attr recordingmode vector
attr source arrival
attr title "hop count"
vector 3 LN.lnd[16] hopCount:vector ETV
attr interpolationmode none
attr recordingmode vector
attr source arrival
attr title "hop count"
vector 4 LN.lnd[3] hopCount:vector ETV
attr interpolationmode none
attr recordingmode vector
attr source arrival
attr title "hop count"
vector 5 LN.lnd[17] hopCount:vector ETV
attr interpolationmode none
attr recordingmode vector
attr source arrival
attr title "hop count"
vector 6 LN.lnd[11] hopCount:vector ETV
attr interpolationmode none
attr recordingmode vector
attr source arrival
attr title "hop count"
vector 7 LN.lnd[2] hopCount:vector ETV
attr interpolationmode none
attr recordingmode vector
attr source arrival
attr title "hop count"
vector 8 LN.lnd[5] hopCount:vector ETV
attr interpolationmode none
attr recordingmode vector
attr source arrival
attr title "hop count"
vector 9 LN.lnd[19] hopCount:vector ETV
attr interpolationmode none
attr recordingmode vector
attr source arrival
attr title "hop count"
vector 10 LN.lnd[12] hopCount:vector ETV
attr interpolationmode none
attr recordingmode vector
attr source arrival
attr title "hop count"
vector 11 LN.lnd[6] hopCount:vector ETV
attr interpolationmode none
attr recordingmode vector
attr source arrival
attr title "hop count"
vector 12 LN.lnd[4] hopCount:vector ETV
attr interpolationmode none
attr recordingmode vector
attr source arrival
attr title "hop count"
vector 13 LN.lnd[7] hopCount:vector ETV
attr interpolationmode none
attr recordingmode vector
attr source arrival
attr title "hop count"
vector 14 LN.lnd[13] hopCount:vector ETV
attr interpolationmode none
attr recordingmode vector
attr source arrival
attr title "hop count"
vector 15 LN.lnd[0] hopCount:vector ETV
attr interpolationmode none
attr recordingmode vector
attr source arrival
attr title "hop count"
vector 16 LN.lnd[10] hopCount:vector ETV
attr interpolationmode none
attr recordingmode vector
attr source arrival
attr title "hop count"
vector 17 LN.lnd[14] hopCount:vector ETV
attr interpolationmode none
attr recordingmode vector
attr source arrival
attr title "hop count"
vector 18 LN.lnd[18] hopCount:vector ETV
attr interpolationmode none
attr recordingmode vector
attr source arrival
attr title "hop count"
vector 19 LN.lnd[9] hopCount:vector ETV
attr interpolationmode none
attr recordingmode vector
attr source arrival
attr title "hop count"
0	4	0.3	3
0	2388	238.7	103
0	2436	243.5	3
0	4752	475.1	436
0	5664	566.3	45
0	8574	857.3	11
0	8822	882.1	1
0	9682	968.1	224
0	10752	1075.1	48
0	11680	1167.9	18
0	11742	1174.1	2
0	12306	1230.5	304
0	13904	1390.3	34
0	14968	1496.7	32
0	17516	1751.5	2
0	18116	1811.5	133
0	20130	2012.9	190
0	22322	2232.1	534
0	23274	2327.3	419
0	25694	2569.3	28
0	25836	2583.5	135
0	26364	2636.3	10
0	27552	2755.1	188
0	28900	2889.9	335
0	28964	2896.3	16
0	32076	3207.5	119
0	33804	3380.3	235
0	37026	3702.5	39
0	37584	3758.3	23
0	38736	3873.5	215
0	39166	3916.5	217
0	40890	4088.9	64
0	41342	4134.1	37
0	45676	4567.5	112
0	47006	4700.5	101
0	47560	4755.9	383
0	47836	4783.5	156
0	47952	4795.1	84
0	48914	4891.3	73
0	49640	4963.9	84
0	52796	5279.5	56
0	53806	5380.5	147
0	53978	5397.7	49
0	56290	5628.9	310
0	57186	5718.5	264
0	58068	5806.7	181
0	58466	5846.5	88
0	58842	5884.1	11
0	58942	5894.1	24
0	59246	5924.5	212
0	59528	5952.7	91
0	62616	6261.5	69
0	63570	6356.9	28
0	63930	6392.9	186
0	64456	6445.5	164
0	65682	6568.1	45
0	68310	6830.9	208
0	68400	6839.9	71
0	69626	6962.5	31
0	70254	7025.3	187
0	71054	7105.3	307
0	72538	7253.7	60
0	73698	7369.7	308
0	75888	7588.7	48
0	76530	7652.9	234
0	76870	7686.9	178
0	82486	8248.5	124
0	83994	8399.3	290
0	84282	8428.1	73
0	84674	8467.3	91
0	88066	8806.5	182
0	89076	8907.5	110
0	89568	8956.7	3
0	90476	9047.5	43
0	91416	9141.5	252
0	93670	9366.9	84
0	95410	9540.9	9
0	96116	9611.5	1
0	100212	10021.1	484
0	102180	10217.9	251
0	102362	10236.1	72
0	102742	10274.1	22
0	105910	10590.9	221
0	106866	10686.5	393
0	107406	10740.5	260
0	107712	10771.1	154
0	110426	11042.5	5
0	111116	11111.5	120
0	113408	11340.7	2
0	114464	11446.3	61
0	115744	11574.3	36
0	121246	12124.5	490
0	122710	12270.9	21
0	124340	12433.9	1
0	126864	12686.3	474
0	127210	12720.9	215
0	129102	12910.1	89
0	129172	12917.1	26
0	131614	13161.3	52
0	132006	13200.5	15
0	132166	13216.5	34
0	132474	13247.3	11
0	135910	13590.9	228
0	137792	13779.1	13
0	137878	13787.7	39
0	138138	13813.7	7
0	138822	13882.1	198
0	139264	13926.3	1
0	140154	14015.3	330
0	140668	14066.7	27
0	142506	14250.5	92
0	142828	14282.7	71
0	146844	14684.3	35
0	147304	14730.3	105
0	147820	14781.9	240
0	148730	14872.9	278
0	149608	14960.7	13
0	150358	15035.7	398
0	150626	15062.5	99
0	156216	15621.5	156
0	157624	15762.3	7
0	168240	16823.9	34
0	169610	16960.9	45
0	170612	17061.1	33
0	171992	17199.1	685
0	176716	17671.5	137
0	178250	17824.9	247
0	178714	17871.3	315
0	179450	17944.9	2
0	179696	17969.5	239
0	183576	18357.5	41
0	183926	18392.5	324
0	184224	18422.3	46
0	184962	18496.1	72
0	185908	18590.7	65
0	186238	18623.7	20
0	186308	18630.7	13
0	187424	18742.3	116
0	188208	18820.7	167
0	188294	18829.3	60
0	188938	18893.7	70
0	189826	18982.5	218
0	191516	19151.5	14
0	193090	19308.9	156
0	194002	19400.1	241
0	195384	19538.3	116
0	195480	19547.9	15
0	196736	19673.5	470
0	197608	19760.7	229
0	198152	19815.1	148
0	198988	19898.7	73
0	199506	19950.5	55
0	200192	20019.1	1
0	204138	20413.7	61
0	206108	20610.7	282
0	206422	20642.1	151
0	208552	20855.1	270
0	209468	20946.7	87
0	213254	21325.3	11
0	213658	21365.7	3
0	215730	21572.9	115
0	218306	21830.5	31
0	219222	21922.1	144
0	220526	22052.5	60
0	220772	22077.1	41
0	228056	22805.5	369
0	228202	22820.1	31
0	230294	23029.3	310
0	232780	23277.9	72
0	233046	23304.5	106
0	234010	23400.9	271
0	235080	23507.9	194
0	236242	23624.1	70
0	236586	23658.5	43
0	238726	23872.5	28
0	239122	23912.1	263
0	240742	24074.1	242
0	242830	24282.9	65
0	247266	24726.5	204
0	248126	24812.5	7
0	249710	24970.9	204
0	250294	25029.3	31
0	250766	25076.5	5
0	251944	25194.3	254
0	253670	25366.9	29
0	254048	25404.7	149
0	254442	25444.1	12
0	255204	25520.3	86
0	255574	25557.3	130
0	256654	25665.3	166
0	259260	25925.9	105
0	261240	26123.9	230
0	263360	26335.9	120
0	264216	26421.5	69
0	264778	26477.7	101
0	266202	26620.1	60
0	268030	26802.9	162
0	268658	26865.7	52
0	268854	26885.3	20
0	270910	27090.9	16
0	271740	27173.9	196
0	273162	27316.1	52
0	273388	27338.7	12
0	275418	27541.7	58
0	276420	27641.9	290
0	277346	27734.5	203
0	278706	27870.5	507
0	279314	27931.3	20
0	279820	27981.9	280
0	280930	28092.9	33
0	284244	28424.3	32
0	284724	28472.3	55
0	285048	28504.7	150
0	286702	28670.1	14
0	287446	28744.5	106
0	287842	28784.1	1
0	292034	29203.3	244
0	292564	29256.3	27
0	293694	29369.3	55
0	294262	29426.1	216
0	294800	29479.9	8
0	295644	29564.3	315
0	296018	29601.7	99
0	297918	29791.7	286
0	300296	30029.5	96
0	300682	30068.1	10
0	303260	30325.9	113
0	303264	30326.3	3
0	304280	30427.9	10
0	305504	30550.3	34
0	305674	30567.3	81
0	305894	30589.3	61
0	306500	30649.9	167
0	306732	30673.1	9
0	307654	30765.3	202
0	308032	30803.1	352
0	309892	30989.1	131
0	311956	31195.5	92
0	312252	31225.1	114
0	316426	31642.5	83
0	316750	31674.9	32
0	316968	31696.7	202
0	317994	31799.3	122
0	319348	31934.7	305
0	320588	32058.7	94
0	321738	32173.7	70
0	322608	32260.7	89
0	324730	32472.9	133
0	325900	32589.9	16
0	326470	32646.9	34
0	328244	32824.3	339
0	329070	32906.9	58
0	330132	33013.1	111
0	332128	33212.7	188
0	332484	33248.3	63
0	332694	33269.3	79
0	334568	33456.7	413
0	334902	33490.1	197
0	335250	33524.9	213
0	336670	33666.9	109
0	337600	33759.9	151
0	339342	33934.1	63
0	340804	34080.3	79
0	341442	34144.1	40
0	342340	34233.9	322
0	343034	34303.3	18
0	347056	34705.5	76
0	348298	34829.7	196
0	348980	34897.9	362
0	349372	34937.1	93
0	350068	35006.7	88
0	350554	35055.3	13
0	351150	35114.9	4
0	352512	35251.1	48
0	353412	35341.1	29
0	354292	35429.1	306
0	357320	35731.9	308
0	357924	35792.3	498
0	358978	35897.7	173
0	362898	36289.7	16
0	364442	36444.1	24
0	364810	36480.9	130
0	370886	37088.5	204
0	371438	37143.7	126
0	371766	37176.5	39
0	374230	37422.9	54
0	374436	37443.5	112
0	375934	37593.3	80
0	376084	37608.3	27
0	376264	37626.3	112
0	376600	37659.9	166
0	378496	37849.5	67
0	380030	38002.9	12
0	383204	38320.3	10
0	385828	38582.7	16
0	386430	38642.9	21
0	390164	39016.3	28
0	390242	39024.1	39
0	391502	39150.1	391
0	392796	39279.5	124
0	392874	39287.3	12
0	395448	39544.7	226
0	395992	39599.1	437
0	396372	39637.1	36
0	399148	39914.7	145
0	399526	39952.5	143
0	399954	39995.3	125
0	402416	40241.5	6
0	402676	40267.5	87
0	405238	40523.7	30
0	407364	40736.3	29
0	407606	40760.5	59
0	409172	40917.1	94
0	409258	40925.7	38
0	412748	41274.7	188
0	413382	41338.1	229
0	413686	41368.5	70
0	414102	41410.1	24
0	416024	41602.3	305
0	418304	41830.3	105
0	419294	41929.3	175
0	421778	42177.7	19
0	423926	42392.5	182
0	425054	42505.3	8
0	425354	42535.3	182
0	427304	42730.3	28
0	427552	42755.1	129
0	432388	43238.7	62
0	433194	43319.3	73
0	433920	43391.9	209
0	434858	43485.7	47
0	437682	43768.1	127
0	438516	43851.5	185
0	439200	43919.9	166
0	440084	44008.3	2
0	440762	44076.1	13
0	441266	44126.5	119
0	445180	44517.9	21
0	445856	44585.5	233
0	448266	44826.5	81
0	449396	44939.5	204
0	449636	44963.5	47
0	452086	45208.5	249
0	452422	45242.1	76
0	453832	45383.1	26
0	456462	45646.1	105
0	456878	45687.7	23
0	457822	45782.1	90
0	458010	45800.9	1
0	458630	45862.9	19
0	459492	45949.1	106
0	461394	46139.3	17
0	461836	46183.5	94
0	462018	46201.7	62
0	464822	46482.1	83
0	465338	46533.7	100
0	465690	46568.9	23
0	466392	46639.1	21
0	467782	46778.1	100
0	471080	47107.9	82
0	473768	47376.7	9
0	475314	47531.3	238
0	475668	47566.7	30
0	480606	48060.5	158
0	482252	48225.1	301
0	484328	48432.7	90
0	484620	48461.9	207
0	485276	48527.5	452
0	485692	48569.1	30
0	490992	49099.1	143
0	491122	49112.1	34
0	491356	49135.5	98
0	492490	49248.9	64
0	495180	49517.9	279
0	500666	50066.5	443
0	502332	50233.1	162
0	502502	50250.1	38
0	502676	50267.5	121
0	504752	50475.1	170
0	505440	50543.9	81
0	506082	50608.1	14
0	506278	50627.7	86
0	507750	50774.9	174
0	508320	50831.9	121
0	509708	50970.7	20
0	510596	51059.5	35
0	511420	51141.9	338
0	511956	51195.5	323
0	512906	51290.5	311
0	515062	51506.1	738
0	515676	51567.5	64
0	515980	51597.9	5
0	516416	51641.5	37
0	517110	51710.9	3
0	519968	51996.7	228
0	520428	52042.7	26
0	525224	52522.3	341
0	526456	52645.5	51
0	528998	52899.7	676
0	532732	53273.1	80
0	533242	53324.1	18
0	535832	53583.1	147
0	536086	53608.5	80
0	538330	53832.9	19
0	538640	53863.9	264
0	538958	53895.7	20
0	540128	54012.7	182
0	542394	54239.3	9
0	543074	54307.3	283
0	543482	54348.1	179
0	547306	54730.5	32
0	549418	54941.7	327
0	553878	55387.7	38
0	554186	55418.5	41
0	555074	55507.3	38
0	555880	55587.9	289
0	556306	55630.5	76
0	556696	55669.5	130
0	563450	56344.9	52
0	564260	56425.9	3
0	564578	56457.7	36
0	565642	56564.1	58
0	569304	56930.3	242
0	571390	57138.9	180
0	572838	57283.7	28
0	577540	57753.9	50
0	579662	57966.1	192
0	581252	58125.1	176
0	586666	58666.5	97
0	587344	58734.3	70
0	588310	58830.9	80
0	590048	59004.7	36
0	590200	59019.9	14
0	590554	59055.3	297
0	593280	59327.9	143
0	595690	59568.9	234
0	597414	59741.3	66
0	597554	59755.3	25
0	599356	59935.5	55
0	599568	59956.7	120
0	601308	60130.7	60
0	603108	60310.7	373
0	604028	60402.7	8
0	605766	60576.5	386
0	606116	60611.5	7
0	606504	60650.3	125
0	606772	60677.1	123
0	607750	60774.9	30
0	608346	60834.5	47
0	608596	60859.5	1
0	609654	60965.3	25
0	612086	61208.5	38
0	613166	61316.5	33
0	613278	61327.7	84
0	613944	61394.3	12
0	615102	61510.1	33
0	615606	61560.5	77
0	616374	61637.3	94
0	617130	61712.9	56
0	620374	62037.3	24
0	620448	62044.7	54
0	621124	62112.3	215
0	622670	62266.9	50
0	623416	62341.5	17
0	625380	62537.9	83
0	627090	62708.9	77
0	627756	62775.5	1
0	629410	62940.9	44
0	630036	63003.5	23
0	631598	63159.7	7
0	633868	63386.7	156
0	634170	63416.9	54
0	634782	63478.1	159
0	635344	63534.3	120
0	636018	63601.7	66
0	637306	63730.5	95
0	637944	63794.3	123
0	639456	63945.5	85
0	639790	63978.9	100
0	641092	64109.1	599
0	641596	64159.5	25
0	644402	64440.1	141
0	645996	64599.5	1
0	646638	64663.7	272
0	648958	64895.7	46
0	649292	64929.1	95
0	649572	64957.1	207
0	652464	65246.3	224
0	653750	65374.9	60
0	654586	65458.5	128
0	655756	65575.5	722
0	655758	65575.7	1
0	658556	65855.5	182
0	659352	65935.1	385
0	660308	66030.7	21
0	661386	66138.5	181
0	663270	66326.9	140
0	663990	66398.9	183
0	664324	66432.3	27
0	665486	66548.5	30
0	667018	66701.7	21
0	667550	66754.9	34
0	671218	67121.7	28
0	671342	67134.1	41
0	672528	67252.7	81
0	673960	67395.9	664
0	677338	67733.7	67
0	677686	67768.5	109
0	677978	67797.7	11
0	680620	68061.9	48
0	681460	68145.9	139
0	688902	68890.1	32
0	690678	69067.7	104
0	691060	69105.9	20
0	691062	69106.1	1
0	692952	69295.1	68
0	693674	69367.3	257
0	694624	69462.3	316
0	696466	69646.5	52
0	696828	69682.7	33
0	697294	69729.3	48
0	697730	69772.9	292
0	705494	70549.3	221
0	707342	70734.1	190
0	707706	70770.5	5
0	708328	70832.7	181
0	710746	71074.5	127
0	712420	71241.9	39
0	714334	71433.3	79
0	715958	71595.7	162
0	715986	71598.5	17
0	717052	71705.1	57
0	717718	71771.7	109
0	718240	71823.9	43
0	720872	72087.1	107
0	720980	72097.9	35
0	721948	72194.7	64
0	722436	72243.5	185
0	722578	72257.7	16
0	722876	72287.5	1
0	723050	72304.9	154
0	726930	72692.9	207
0	727002	72700.1	57
0	727890	72788.9	6
0	730854	73085.3	84
0	731378	73137.7	161
0	731860	73185.9	39
0	733818	73381.7	10
0	734506	73450.5	182
0	734892	73489.1	83
0	734906	73490.5	10
0	735670	73566.9	162
0	737216	73721.5	60
0	738508	73850.7	89
0	738938	73893.7	208
0	739700	73969.9	42
0	740978	74097.7	148
0	744462	74446.1	39
0	744862	74486.1	50
0	746430	74642.9	16
0	746770	74676.9	15
0	747220	74721.9	34
0	747852	74785.1	24
0	749514	74951.3	256
0	750792	75079.1	34
0	751654	75165.3	233
0	754704	75470.3	9
0	759356	75935.5	95
0	760582	76058.1	88
0	760658	76065.7	38
0	763160	76315.9	186
0	764632	76463.1	153
0	765722	76572.1	338
0	765986	76598.5	89
0	770940	77093.9	6
0	772194	77219.3	44
0	773022	77302.1	511
0	774644	77464.3	88
0	776876	77687.5	37
0	778402	77840.1	412
0	779074	77907.3	50
0	780898	78089.7	328
0	785374	78537.3	83
0	785770	78576.9	18
0	788394	78839.3	182
0	789328	78932.7	224
0	790146	79014.5	269
0	791058	79105.7	36
0	791600	79159.9	12
0	792652	79265.1	338
0	792776	79277.5	39
0	793084	79308.3	82
0	793650	79364.9	97
0	795190	79518.9	118
0	796156	79615.5	7
0	799824	79982.3	59
0	801472	80147.1	275
0	802288	80228.7	10
0	803954	80395.3	137
0	804932	80493.1	200
0	811722	81172.1	238
0	812664	81266.3	100
0	816094	81609.3	607
0	816840	81683.9	85
0	817208	81720.7	25
0	817898	81789.7	296
0	821564	82156.3	175
0	823452	82345.1	1
0	825626	82562.5	78
0	826030	82602.9	101
0	830310	83030.9	112
0	835626	83562.5	185
0	835774	83577.3	29
0	836410	83640.9	114
0	837188	83718.7	7
0	837582	83758.1	287
0	839156	83915.5	67
0	839286	83928.5	124
0	840094	84009.3	307
0	842238	84223.7	49
0	846618	84661.7	256
0	849794	84979.3	9
0	853438	85343.7	32
0	856214	85621.3	88
0	857526	85752.5	65
0	858738	85873.7	12
0	861346	86134.5	517
0	861952	86195.1	16
0	862444	86244.3	177
0	863452	86345.1	197
0	866266	86626.5	7
0	868072	86807.1	71
0	870996	87099.5	63
0	871138	87113.7	4
0	872554	87255.3	212
0	873098	87309.7	168
0	873960	87395.9	75
0	875116	87511.5	61
0	877146	87714.5	454
0	878574	87857.3	271
0	879336	87933.5	253
0	886578	88657.7	331
0	887994	88799.3	1
0	888288	88828.7	216
0	889120	88911.9	8
0	893112	89311.1	754
0	893358	89335.7	181
0	895130	89512.9	237
0	895474	89547.3	278
0	895688	89568.7	124
0	896330	89632.9	54
0	896772	89677.1	94
0	898038	89803.7	111
0	898128	89812.7	73
0	899984	89998.3	64
0	902402	90240.1	39
0	910172	91017.1	567
0	911368	91136.7	240
0	911514	91151.3	1
0	912070	91206.9	19
0	913060	91305.9	87
0	913436	91343.5	46
0	914430	91442.9	511
0	914678	91467.7	18
0	914736	91473.5	38
0	915206	91520.5	3
0	917106	91710.5	52
0	919600	91959.9	69
0	920182	92018.1	82
0	920814	92081.3	32
0	921156	92115.5	186
0	921350	92134.9	175
0	921968	92196.7	142
0	927712	92771.1	63
0	929624	92962.3	22
0	930420	93041.9	17
0	930988	93098.7	1
0	932512	93251.1	86
0	934700	93469.9	475
0	936144	93614.3	139
0	937064	93706.3	84
0	938382	93838.1	29
0	943220	94321.9	377
0	943496	94349.5	74
0	944372	94437.1	76
0	946954	94695.3	50
0	947516	94751.5	9
0	949106	94910.5	214
0	952078	95207.7	37
0	952460	95245.9	117
0	954812	95481.1	5
0	956032	95603.1	1
0	958460	95845.9	21
0	958828	95882.7	146
0	958968	95896.7	8
0	959450	95944.9	51
0	960260	96025.9	100
0	960518	96051.7	185
0	961630	96162.9	54
0	962606	96260.5	207
0	964400	96439.9	73
0	964678	96467.7	53
0	966002	96600.1	16
0	968748	96874.7	80
0	969136	96913.5	347
0	971680	97167.9	164
0	974126	97412.5	47
0	976482	97648.1	150
0	977706	97770.5	18
0	977914	97791.3	69
0	978662	97866.1	23
0	979198	97919.7	53
0	980010	98000.9	38
0	980316	98031.5	29
0	982314	98231.3	197
0	985504	98550.3	121
0	986154	98615.3	108
0	987008	98700.7	45
0	987072	98707.1	27
0	988286	98828.5	20
0	988330	98832.9	30
0	988978	98897.7	23
0	989406	98940.5	159
0	990554	99055.3	201
0	993108	99310.7	1
0	993776	99377.5	3
0	993834	99383.3	29
0	998362	99836.1	55
0	1000434	100043.3	15
0	1002522	100252.1	149
0	1004170	100416.9	51
0	1004584	100458.3	201
0	1005618	100561.7	138
0	1008440	100843.9	73
0	1008888	100888.7	77
0	1009834	100983.3	54
0	1011236	101123.5	132
0	1011484	101148.3	100
0	1012114	101211.3	83
0	1015514	101551.3	36
0	1016350	101634.9	78
0	1017054	101705.3	34
0	1018208	101820.7	28
0	1018596	101859.5	112
0	1020626	102062.5	26
0	1023008	102300.7	93
0	1023814	102381.3	192
0	1025018	102501.7	252
0	1025302	102530.1	83
0	1025676	102567.5	66
0	1027066	102706.5	66
0	1029004	102900.3	3
0	1029794	102979.3	9
0	1030510	103050.9	318
0	1032598	103259.7	1
0	1032836	103283.5	24
0	1033226	103322.5	33
0	1035556	103555.5	18
0	1036872	103687.1	158
0	1037642	103764.1	132
0	1038790	103878.9	81
0	1039008	103900.7	210
0	1041208	104120.7	33
0	1042396	104239.5	20
0	1043878	104387.7	338
0	1044594	104459.3	44
0	1045798	104579.7	7
0	1047488	104748.7	187
0	1048910	104890.9	256
0	1051110	105110.9	146
0	1051454	105145.3	64
0	1052794	105279.3	13
0	1053430	105342.9	180
0	1055160	105515.9	131
0	1055236	105523.5	49
0	1056814	105681.3	8
0	1061706	106170.5	197
0	1062712	106271.1	402
0	1064244	106424.3	129
0	1065662	106566.1	142
0	1067438	106743.7	52
0	1067462	106746.1	6
0	1068538	106853.7	40
0	1072624	107262.3	25
0	1074202	107420.1	7
0	1074350	107434.9	1
0	1076706	107670.5	5
0	1077492	107749.1	98
0	1078466	107846.5	145
0	1078614	107861.3	42
0	1084880	108487.9	77
0	1085734	108573.3	573
0	1086128	108612.7	68
0	1086900	108689.9	29
0	1087392	108739.1	208
0	1092194	109219.3	70
0	1094984	109498.3	62
0	1097474	109747.3	118
0	1097718	109771.7	233
0	1097872	109787.1	47
0	1101044	110104.3	226
0	1101726	110172.5	149
0	1102440	110243.9	69
0	1102838	110283.7	5
0	1103272	110327.1	346
0	1105440	110543.9	93
0	1107224	110722.3	276
0	1110730	111072.9	20
0	1111152	111115.1	290
0	1112088	111208.7	118
0	1112608	111260.7	139
0	1113362	111336.1	21
0	1120500	112049.9	94
0	1124582	112458.1	69
0	1125022	112502.1	40
0	1125710	112570.9	112
0	1125916	112591.5	4
0	1126054	112605.3	133
0	1126774	112677.3	432
0	1130734	113073.3	56
0	1131554	113155.3	10
0	1132490	113248.9	130
0	1132558	113255.7	39
0	1133606	113360.5	38
0	1134060	113405.9	30
0	1134576	113457.5	1
0	1134958	113495.7	17
0	1136038	113603.7	80
0	1137608	113760.7	101
0	1140886	114088.5	1
0	1141504	114150.3	91
0	1143764	114376.3	53
0	1145176	114517.5	27
0	1145870	114586.9	20
0	1148368	114836.7	99
0	1149060	114905.9	162
0	1151174	115117.3	11
0	1152964	115296.3	18
0	1153408	115340.7	74
0	1154510	115450.9	257
0	1155062	115506.1	149
0	1157424	115742.3	191
0	1158762	115876.1	226
0	1158822	115882.1	54
0	1159100	115909.9	59
0	1159938	115993.7	419
0	1164324	116432.3	157
0	1165382	116538.1	99
0	1166602	116660.1	108
0	1166710	116670.9	6
0	1167046	116704.5	42
0	1170304	117030.3	70
0	1170926	117092.5	568
0	1173090	117308.9	218
0	1173956	117395.5	111
0	1175264	117526.3	401
0	1176066	117606.5	134
0	1176484	117648.3	328
0	1176758	117675.7	27
0	1177494	117749.3	152
0	1177992	117799.1	176
0	1178402	117840.1	5
0	1179342	117934.1	781
0	1184040	118403.9	86
0	1185144	118514.3	7
0	1186990	118698.9	214
0	1189962	118996.1	60
0	1190002	119000.1	4
0	1191488	119148.7	44
0	1191692	119169.1	79
0	1192154	119215.3	332
0	1193162	119316.1	55
0	1193594	119359.3	226
0	1194186	119418.5	54
0	1194928	119492.7	60
0	1196508	119650.7	216
0	1196640	119663.9	73
0	1198588	119858.7	27
0	1199998	119999.7	96
0	1200588	120058.7	149
0	1200758	120075.7	155
0	1202164	120216.3	65
0	1202304	120230.3	30
0	1205230	120522.9	163
0	1205574	120557.3	16
0	1205754	120575.3	171
0	1206242	120624.1	212
0	1207300	120729.9	193
0	1207492	120749.1	3
0	1211714	121171.3	2
0	1213704	121370.3	66
0	1214962	121496.1	13
0	1217262	121726.1	143
0	1223970	122396.9	62
0	1224394	122439.3	27
0	1224730	122472.9	21
0	1226304	122630.3	13
0	1226580	122657.9	6
0	1229498	122949.7	12
0	1230120	123011.9	4
0	1232852	123285.1	60
0	1235554	123555.3	1
0	1236280	123627.9	47
0	1236644	123664.3	66
0	1238936	123893.5	148
0	1239524	123952.3	166
0	1241684	124168.3	104
0	1241734	124173.3	2
0	1244796	124479.5	205
0	1246824	124682.3	302
0	1248078	124807.7	7
0	1249894	124989.3	649
0	1251460	125145.9	622
0	1252246	125224.5	122
0	1254628	125462.7	75
0	1256272	125627.1	179
0	1257234	125723.3	74
0	1266128	126612.7	196
0	1266340	126633.9	136
0	1271226	127122.5	176
0	1272480	127247.9	195
0	1273278	127327.7	180
0	1275374	127537.3	175
0	1277672	127767.1	192
0	1280072	128007.1	254
0	1281980	128197.9	224
0	1282376	128237.5	164
0	1282726	128272.5	174
0	1285214	128521.3	889
0	1287276	128727.5	69
0	1287526	128752.5	8
0	1289148	128914.7	39
0	1289560	128955.9	126
0	1291210	129120.9	56
0	1291916	129191.5	330
0	1295594	129559.3	40
0	1295688	129568.7	36
0	1297386	129738.5	191
0	1297538	129753.7	105
0	1297832	129783.1	1
0	1301798	130179.7	51
0	1302514	130251.3	429
0	1305814	130581.3	27
0	1307934	130793.3	83
0	1308240	130823.9	7
0	1308994	130899.3	92
0	1309494	130949.3	339
0	1312314	131231.3	3
0	1312586	131258.5	5
0	1314204	131420.3	25
0	1315084	131508.3	27
0	1315486	131548.5	199
0	1316594	131659.3	42
0	1317060	131705.9	276
0	1317396	131739.5	15
0	1320084	132008.3	30
0	1320870	132086.9	66
0	1321466	132146.5	107
0	1324010	132400.9	226
0	1325068	132506.7	403
0	1326024	132602.3	227
0	1327068	132706.7	29
0	1327964	132796.3	33
0	1332036	133203.5	68
0	1334572	133457.1	240
0	1336098	133609.7	246
0	1336258	133625.7	64
0	1336984	133698.3	314
0	1338570	133856.9	8
0	1341088	134108.7	3
0	1342288	134228.7	52
0	1346188	134618.7	68
0	1347506	134750.5	528
0	1347712	134771.1	28
0	1347936	134793.5	60
0	1349786	134978.5	53
0	1352886	135288.5	451
0	1355220	135521.9	439
0	1355514	135551.3	282
0	1355798	135579.7	186
0	1355922	135592.1	108
0	1356026	135602.5	1
0	1358166	135816.5	61
0	1359068	135906.7	265
0	1359248	135924.7	76
0	1360484	136048.3	7
0	1362182	136218.1	56
0	1362898	136289.7	339
0	1363524	136352.3	163
0	1366524	136652.3	446
0	1368734	136873.3	31
0	1370814	137081.3	478
0	1371924	137192.3	355
0	1374458	137445.7	16
0	1375116	137511.5	15
0	1375332	137533.1	1
0	1375886	137588.5	65
0	1376044	137604.3	34
0	1376474	137647.3	152
0	1376664	137666.3	26
0	1377026	137702.5	36
0	1377436	137743.5	89
0	1378180	137817.9	30
0	1378916	137891.5	162
0	1379736	137973.5	12
0	1379738	137973.7	1
0	1383838	138383.7	67
0	1384810	138480.9	269
0	1387768	138776.7	27
0	1391908	139190.7	331
0	1392284	139228.3	125
0	1393738	139373.7	74
0	1394296	139429.5	275
0	1396350	139634.9	1
0	1404590	140458.9	213
0	1405610	140560.9	166
0	1408874	140887.3	130
0	1409102	140910.1	170
0	1410306	141030.5	28
0	1414656	141465.5	228
0	1417684	141768.3	16
0	1419300	141929.9	71
0	1419572	141957.1	71
0	1421542	142154.1	243
0	1422110	142210.9	240
0	1423162	142316.1	242
0	1423558	142355.7	152
0	1424792	142479.1	100
0	1427510	142750.9	274
0	1428958	142895.7	390
0	1429208	142920.7	8
0	1431106	143110.5	83
0	1431582	143158.1	7
0	1431990	143198.9	5
0	1432824	143282.3	54
0	1433424	143342.3	1
0	1434436	143443.5	74
0	1434830	143482.9	291
0	1435062	143506.1	62
0	1436046	143604.5	7
0	1436602	143660.1	69
0	1437564	143756.3	189
0	1437620	143761.9	31
0	1438282	143828.1	44
0	1442012	144201.1	94
0	1443448	144344.7	53
0	1445330	144532.9	8
0	1445604	144560.3	76
0	1447510	144750.9	220
0	1449892	144989.1	73
0	1452106	145210.5	206
0	1452980	145297.9	5
0	1453484	145348.3	119
0	1457146	145714.5	377
0	1458678	145867.7	93
0	1462612	146261.1	93
0	1464916	146491.5	7
0	1465372	146537.1	62
0	1466122	146612.1	98
0	1466460	146645.9	65
0	1466772	146677.1	46
0	1467476	146747.5	19
0	1468682	146868.1	48
0	1471236	147123.5	94
0	1471992	147199.1	38
0	1472732	147273.1	295
0	1475048	147504.7	1
0	1475438	147543.7	26
0	1476724	147672.3	77
0	1479446	147944.5	79
0	1480378	148037.7	180
0	1481492	148149.1	39
0	1483350	148334.9	5
0	1483964	148396.3	89
0	1485490	148548.9	83
0	1485748	148574.7	20
0	1486706	148670.5	431
0	1487542	148754.1	190
0	1488236	148823.5	194
0	1488996	148899.5	103
0	1489608	148960.7	109
0	1490752	149075.1	287
0	1492312	149231.1	47
0	1493296	149329.5	286
0	1494940	149493.9	294
0	1495140	149513.9	16
0	1495678	149567.7	21
0	1499220	149921.9	191
0	1499978	149997.7	6
0	1500094	150009.3	38
0	1502026	150202.5	35
0	1504292	150429.1	122
0	1505940	150593.9	99
0	1509014	150901.3	9
0	1509288	150928.7	149
0	1511498	151149.7	8
0	1511708	151170.7	151
0	1519164	151916.3	9
0	1519736	151973.5	137
0	1521958	152195.7	11
0	1523138	152313.7	425
0	1523668	152366.7	58
0	1523768	152376.7	39
0	1524838	152483.7	51
0	1526134	152613.3	62
0	1528708	152870.7	158
0	1528940	152893.9	65
0	1529324	152932.3	167
0	1529874	152987.3	4
0	1530176	153017.5	6
0	1534700	153469.9	43
0	1536070	153606.9	26
0	1536400	153639.9	109
0	1537578	153757.7	7
0	1538226	153822.5	8
0	1538384	153838.3	114
0	1540944	154094.3	336
0	1542388	154238.7	5
0	1542676	154267.5	202
0	1545106	154510.5	96
0	1547258	154725.7	77
0	1550098	155009.7	28
0	1551288	155128.7	1
0	1553484	155348.3	60
0	1554846	155484.5	227
0	1555080	155507.9	21
0	1556646	155664.5	233
0	1557072	155707.1	14
0	1557498	155749.7	314
0	1558916	155891.5	144
0	1559934	155993.3	1
0	1563790	156378.9	173
0	1565204	156520.3	310
0	1567216	156721.5	268
0	1568820	156881.9	7
0	1570650	157064.9	51
0	1572062	157206.1	300
0	1574294	157429.3	72
0	1574604	157460.3	3
0	1574844	157484.3	69
0	1575118	157511.7	34
0	1575740	157573.9	326
0	1577386	157738.5	14
0	1578120	157811.9	139
0	1579332	157933.1	225
0	1580532	158053.1	15
0	1582978	158297.7	164
0	1583160	158315.9	12
0	1585408	158540.7	1
0	1587560	158755.9	2
0	1588174	158817.3	106
0	1588314	158831.3	42
0	1590456	159045.5	86
0	1591184	159118.3	48
0	1591654	159165.3	141
0	1592154	159215.3	22
0	1594622	159462.1	345
0	1597130	159712.9	239
0	1598270	159826.9	216
0	1599072	159907.1	36
0	1600014	160001.3	143
0	1600828	160082.7	363
0	1601536	160153.5	284
0	1602660	160265.9	239
0	1603128	160312.7	173
0	1603714	160371.3	154
0	1603966	160396.5	105
0	1606656	160665.5	24
0	1608756	160875.5	87
0	1608934	160893.3	58
0	1609364	160936.3	154
0	1612100	161209.9	257
0	1613244	161324.3	10
0	1613390	161338.9	135
0	1619088	161908.7	14
0	1621636	162163.5	660
0	1622480	162247.9	142
0	1623344	162334.3	283
0	1624494	162449.3	427
0	1626178	162617.7	97
0	1627892	162789.1	271
0	1629754	162975.3	113
0	1633926	163392.5	96
0	1635098	163509.7	131
0	1638280	163827.9	149
0	1639724	163972.3	63
0	1640780	164077.9	191
0	1642002	164200.1	333
0	1646678	164667.7	11
0	1649268	164926.7	23
0	1650676	165067.5	127
0	1652856	165285.5	139
0	1653344	165334.3	1
0	1655724	165572.3	103
0	1656152	165615.1	22
0	1657094	165709.3	6
0	1657298	165729.7	5
0	1657888	165788.7	230
0	1660584	166058.3	11
0	1664710	166470.9	6
0	1666906	166690.5	26
0	1667422	166742.1	21
0	1668138	166813.7	346
0	1671032	167103.1	373
0	1673282	167328.1	186
0	1675816	167581.5	1
0	1677670	167766.9	311
0	1677952	167795.1	1
0	1679326	167932.5	136
0	1679816	167981.5	38
0	1680412	168041.1	178
0	1681506	168150.5	99
0	1681888	168188.7	3
0	1683424	168342.3	253
0	1684796	168479.5	74
0	1686000	168599.9	26
0	1686400	168639.9	77
0	1686782	168678.1	48
0	1687700	168769.9	11
0	1688640	168863.9	49
0	1689126	168912.5	78
0	1689484	168948.3	3
0	1690028	169002.7	106
0	1690566	169056.5	44
0	1690702	169070.1	133
0	1695052	169505.1	31
0	1697346	169734.5	95
0	1697518	169751.7	36
0	1698082	169808.1	78
0	1698564	169856.3	124
0	1699018	169901.7	137
0	1700038	170003.7	444
0	1701958	170195.7	119
0	1702098	170209.7	88
0	1702282	170228.1	91
0	1702668	170266.7	3
0	1703874	170387.3	372
0	1704800	170479.9	8
0	1705330	170532.9	240
0	1706674	170667.3	9
0	1707344	170734.3	134
0	1709626	170962.5	202
0	1712518	171251.7	71
0	1713654	171365.3	121
0	1713656	171365.5	1
0	1716376	171637.5	197
0	1718232	171823.1	16
0	1718512	171851.1	99
0	1721400	172139.9	18
0	1722948	172294.7	13
0	1724016	172401.5	248
0	1725306	172530.5	44
0	1725752	172575.1	116
0	1731188	173118.7	113
0	1732084	173208.3	104
0	1734956	173495.5	324
0	1735118	173511.7	1
0	1735632	173563.1	176
0	1735948	173594.7	40
0	1736572	173657.1	9
0	1736824	173682.3	61
0	1741544	174154.3	247
0	1745408	174540.7	179
0	1745568	174556.7	97
0	1750076	175007.5	21
0	1750196	175019.5	8
0	1750640	175063.9	373
0	1750892	175089.1	53