version 3
run General-127-20230611-05:41:42-416646
attr configname General
attr datetime 20230611-05:41:42
attr datetimef 20230611-054142
attr experiment General
attr inifile omnetpp.ini
attr iterationvars $N=97
attr iterationvarsd N=97
attr iterationvarsf N=97-
attr measurement $N=97
attr network LN
attr processid 416646
attr repetition 3
attr replication #3
attr resultdir results
attr runnumber 127
attr seedset 127
itervar N 97
config network LN
config sim-time-limit 250000s
config **.tic[*].hopCount.result-recording-modes +vector
config *.numCentralNodes 97
config repeat 4

vector 0 LN.lnd[10] hopCount:vector ETV
attr interpolationmode none
attr recordingmode vector
attr source arrival
attr title "hop count"
vector 1 LN.lnd[4] hopCount:vector ETV
attr interpolationmode none
attr recordingmode vector
attr source arrival
attr title "hop count"
vector 2 LN.lnd[5] hopCount:vector ETV
attr interpolationmode none
attr recordingmode vector
attr source arrival
attr title "hop count"
vector 3 LN.lnd[18] hopCount:vector ETV
attr interpolationmode none
attr recordingmode vector
attr source arrival
attr title "hop count"
vector 4 LN.lnd[3] hopCount:vector ETV
attr interpolationmode none
attr recordingmode vector
attr source arrival
attr title "hop count"
vector 5 LN.lnd[2] hopCount:vector ETV
attr interpolationmode none
attr recordingmode vector
attr source arrival
attr title "hop count"
vector 6 LN.lnd[19] hopCount:vector ETV
attr interpolationmode none
attr recordingmode vector
attr source arrival
attr title "hop count"
vector 7 LN.lnd[0] hopCount:vector ETV
attr interpolationmode none
attr recordingmode vector
attr source arrival
attr title "hop count"
vector 8 LN.lnd[9] hopCount:vector ETV
attr interpolationmode none
attr recordingmode vector
attr source arrival
attr title "hop count"
vector 9 LN.lnd[1] hopCount:vector ETV
attr interpolationmode none
attr recordingmode vector
attr source arrival
attr title "hop count"
vector 10 LN.lnd[15] hopCount:vector ETV
attr interpolationmode none
attr recordingmode vector
attr source arrival
attr title "hop count"
vector 11 LN.lnd[14] hopCount:vector ETV
attr interpolationmode none
attr recordingmode vector
attr source arrival
attr title "hop count"
vector 12 LN.lnd[11] hopCount:vector ETV
attr interpolationmode none
attr recordingmode vector
attr source arrival
attr title "hop count"
vector 13 LN.lnd[13] hopCount:vector ETV
attr interpolationmode none
attr recordingmode vector
attr source arrival
attr title "hop count"
vector 14 LN.lnd[16] hopCount:vector ETV
attr interpolationmode none
attr recordingmode vector
attr source arrival
attr title "hop count"
vector 15 LN.lnd[8] hopCount:vector ETV
attr interpolationmode none
attr recordingmode vector
attr source arrival
attr title "hop count"
vector 16 LN.lnd[6] hopCount:vector ETV
attr interpolationmode none
attr recordingmode vector
attr source arrival
attr title "hop count"
vector 17 LN.lnd[17] hopCount:vector ETV
attr interpolationmode none
attr recordingmode vector
attr source arrival
attr title "hop count"
vector 18 LN.lnd[7] hopCount:vector ETV
attr interpolationmode none
attr recordingmode vector
attr source arrival
attr title "hop count"
vector 19 LN.lnd[12] hopCount:vector ETV
attr interpolationmode none
attr recordingmode vector
attr source arrival
attr title "hop count"
0	4	0.3	3
0	3916	391.5	45
0	5062	506.1	43
0	5180	517.9	12
0	6608	660.7	222
0	6776	677.5	24
0	8856	885.5	70
0	9778	977.7	34
0	9846	984.5	4
0	11712	1171.1	84
0	13788	1378.7	2
0	17774	1777.3	25
0	20036	2003.5	20
0	20250	2024.9	35
0	22058	2205.7	78
0	22256	2225.5	17
0	22996	2299.5	45
0	23902	2390.1	15
0	25062	2506.1	8
0	26092	2609.1	7
0	26416	2641.5	36
0	28622	2862.1	15
0	29536	2953.5	25
0	29726	2972.5	8
0	29922	2992.1	67
0	31002	3100.1	27
0	32076	3207.5	3
0	33576	3357.5	15
0	35462	3546.1	72
0	36478	3647.7	80
0	36650	3664.9	10
0	37544	3754.3	3
0	37804	3780.3	11
0	38274	3827.3	93
0	45360	4535.9	15
0	45496	4549.5	6
0	46568	4656.7	54
0	47540	4753.9	57
0	48762	4876.1	25
0	52402	5240.1	4
0	52574	5257.3	46
0	53382	5338.1	10
0	55290	5528.9	16
0	66140	6613.9	2
0	66734	6673.3	6
0	73262	7326.1	5
0	77012	7701.1	3
0	77898	7789.7	2
0	79102	7910.1	25
0	79228	7922.7	78
0	79360	7935.9	7
0	81460	8145.9	8
0	82766	8276.5	13
0	83746	8374.5	68
0	85076	8507.5	37
0	86970	8696.9	8
0	87096	8709.5	6
0	88902	8890.1	192
0	89092	8909.1	13
0	89876	8987.5	30
0	89966	8996.5	7
0	90004	9000.3	14
0	91454	9145.3	166
0	92532	9253.1	62
0	92684	9268.3	5
0	94198	9419.7	11
0	94436	9443.5	3
0	95204	9520.3	6
0	95454	9545.3	14
0	96824	9682.3	48
0	96996	9699.5	28
0	97752	9775.1	118
0	97974	9797.3	2
0	98808	9880.7	7
0	101752	10175.1	92
0	103470	10346.9	10
0	104864	10486.3	20
0	105136	10513.5	16
0	105688	10568.7	20
0	109080	10907.9	52
0	109606	10960.5	7
0	110872	11087.1	147
0	111680	11167.9	16
0	111960	11195.9	17
0	112280	11227.9	111
0	112340	11233.9	34
0	112728	11272.7	3
0	113714	11371.3	49
0	114330	11432.9	89
0	115802	11580.1	20
0	116560	11655.9	13
0	117446	11744.5	2
0	120166	12016.5	49
0	121406	12140.5	5
0	121484	12148.3	14
0	121638	12163.7	101
0	121844	12184.3	126
0	122420	12241.9	47
0	130842	13084.1	12
0	133554	13355.3	17
0	133650	13364.9	10
0	134608	13460.7	11
0	135460	13545.9	11
0	138254	13825.3	19
0	143900	14389.9	33
0	146648	14664.7	7
0	147862	14786.1	56
0	148238	14823.7	19
0	148484	14848.3	24
0	150754	15075.3	69
0	159022	15902.1	35
0	161046	16104.5	125
0	162258	16225.7	15
0	162968	16296.7	121
0	163134	16313.3	19
0	164164	16416.3	1
0	164240	16423.9	20
0	164784	16478.3	125
0	165324	16532.3	9
0	166472	16647.1	90
0	166560	16655.9	28
0	168030	16802.9	17
0	168310	16830.9	40
0	168550	16854.9	14
0	169244	16924.3	3
0	169298	16929.7	32
0	169700	16969.9	33
0	170024	17002.3	88
0	175024	17502.3	15
0	175574	17557.3	102
0	176698	17669.7	3
0	177370	17736.9	77
0	178454	17845.3	11
0	178972	17897.1	10
0	179602	17960.1	12
0	180080	18007.9	5
0	181728	18172.7	7
0	183308	18330.7	33
0	183318	18331.7	8
0	183596	18359.5	5
0	183874	18387.3	8
0	189934	18993.3	36
0	190630	19062.9	109
0	192740	19273.9	86
0	193464	19346.3	135
0	193722	19372.1	48
0	196256	19625.5	17
0	198434	19843.3	3
0	202404	20240.3	4
0	205194	20519.3	32
0	205690	20568.9	74
0	207116	20711.5	7
0	207448	20744.7	36
0	208830	20882.9	10
0	209046	20904.5	11
0	210934	21093.3	70
0	211720	21171.9	20
0	212150	21214.9	20
0	212220	21221.9	4
0	212458	21245.7	45
0	217000	21699.9	6
0	217276	21727.5	17
0	218342	21834.1	79
0	218676	21867.5	30
0	219050	21904.9	3
0	219344	21934.3	10
0	222060	22205.9	3
0	222138	22213.7	76
0	224184	22418.3	21
0	225038	22503.7	21
0	228108	22810.7	27
0	230200	23019.9	4
0	230360	23035.9	85
0	234996	23499.5	11
0	237138	23713.7	3
0	239460	23945.9	5
0	242546	24254.5	9
0	245102	24510.1	21
0	245256	24525.5	12
0	245552	24555.1	60
0	246510	24650.9	53
0	253514	25351.3	85
0	253612	25361.1	4
0	255058	25505.7	7
0	255606	25560.5	33
0	256626	25662.5	13
0	256864	25686.3	36
0	257106	25710.5	8
0	259496	25949.5	13
0	259632	25963.1	56
0	259672	25967.1	25
0	260110	26010.9	49
0	261668	26166.7	13
0	262914	26291.3	3
0	263436	26343.5	23
0	264564	26456.3	99
0	265348	26534.7	16
0	265704	26570.3	42
0	269020	26901.9	20
0	269074	26907.3	49
0	270596	27059.5	8
0	270738	27073.7	126
0	274102	27410.1	40
0	275740	27573.9	21
0	278746	27874.5	99
0	283572	28357.1	54
0	283982	28398.1	146
0	284292	28429.1	87
0	285222	28522.1	47
0	286032	28603.1	18
0	286240	28623.9	29
0	286890	28688.9	18
0	287802	28780.1	51
0	288398	28839.7	14
0	288926	28892.5	6
0	292450	29244.9	21
0	292634	29263.3	21
0	295878	29587.7	24
0	303118	30311.7	62
0	304308	30430.7	182
0	304828	30482.7	1
0	305326	30532.5	63
0	306740	30673.9	31
0	307514	30751.3	48
0	307940	30793.9	76
0	309880	30987.9	111
0	312206	31220.5	60
0	313308	31330.7	68
0	314070	31406.9	1
0	314594	31459.3	11
0	314666	31466.5	4
0	317042	31704.1	10
0	317720	31771.9	20
0	317940	31793.9	28
0	319844	31984.3	8
0	321206	32120.5	61
0	323440	32343.9	15
0	323482	32348.1	20
0	325694	32569.3	56
0	327690	32768.9	11
0	328252	32825.1	12
0	330082	33008.1	13
0	330992	33099.1	8
0	333318	33331.7	82
0	333522	33352.1	9
0	333706	33370.5	44
0	335686	33568.5	86
0	336102	33610.1	14
0	336276	33627.5	40
0	337958	33795.7	118
0	339116	33911.5	11
0	344054	34405.3	32
0	345004	34500.3	59
0	345178	34517.7	114
0	345436	34543.5	82
0	345858	34585.7	27
0	346306	34630.5	16
0	348366	34836.5	3
0	348786	34878.5	20
0	350414	35041.3	14
0	352462	35246.1	108
0	353588	35358.7	41
0	354878	35487.7	31
0	355534	35553.3	5
0	360114	36011.3	110
0	363610	36360.9	22
0	363652	36365.1	15
0	364448	36444.7	14
0	366692	36669.1	17
0	369818	36981.7	11
0	370594	37059.3	3
0	371564	37156.3	2
0	372588	37258.7	21
0	374124	37412.3	70
0	374436	37443.5	19
0	374988	37498.7	38
0	378708	37870.7	16
0	380462	38046.1	46
0	380734	38073.3	44
0	381040	38103.9	3
0	381398	38139.7	27
0	381938	38193.7	25
0	382414	38241.3	81
0	382476	38247.5	8
0	383812	38381.1	5
0	386038	38603.7	4
0	386778	38677.7	7
0	387332	38733.1	21
0	387468	38746.7	68
0	388882	38888.1	6
0	389056	38905.5	6
0	389612	38961.1	36
0	391922	39192.1	14
0	392478	39247.7	6
0	394254	39425.3	77
0	395438	39543.7	52
0	396268	39626.7	90
0	396648	39664.7	20
0	396976	39697.5	8
0	399104	39910.3	15
0	400370	40036.9	58
0	402340	40233.9	15
0	403626	40362.5	190
0	406704	40670.3	30
0	406882	40688.1	6
0	407684	40768.3	22
0	407748	40774.7	55
0	408176	40817.5	14
0	409830	40982.9	19
0	410422	41042.1	16
0	410712	41071.1	16
0	410916	41091.5	17
0	413948	41394.7	100
0	416650	41664.9	7
0	418270	41826.9	34
0	418864	41886.3	26
0	419484	41948.3	8
0	420166	42016.5	1
0	421530	42152.9	38
0	421950	42194.9	21
0	425604	42560.3	83
0	433248	43324.7	59
0	434318	43431.7	37
0	435330	43532.9	14
0	435580	43557.9	37
0	436290	43628.9	73
0	436534	43653.3	18
0	438092	43809.1	39
0	438808	43880.7	73
0	440048	44004.7	3
0	440234	44023.3	70
0	440858	44085.7	14
0	441230	44122.9	22
0	442892	44289.1	13
0	447276	44727.5	2
0	448606	44860.5	41
0	456098	45609.7	75
0	457896	45789.5	5
0	459498	45949.7	157
0	461482	46148.1	2
0	461904	46190.3	10
0	464934	46493.3	38
0	465242	46524.1	3
0	466624	46662.3	53
0	467008	46700.7	19
0	468256	46825.5	5
0	468614	46861.3	10
0	469514	46951.3	36
0	469898	46989.7	44
0	471052	47105.1	140
0	474454	47445.3	18
0	475248	47524.7	2
0	475594	47559.3	6
0	476354	47635.3	14
0	476766	47676.5	42
0	479012	47901.1	14
0	479660	47965.9	39
0	480524	48052.3	49
0	482210	48220.9	162
0	484568	48456.7	61
0	485196	48519.5	34
0	486370	48636.9	26
0	486552	48655.1	8
0	487348	48734.7	72
0	487970	48796.9	83
0	489958	48995.7	65
0	490946	49094.5	140
0	491058	49105.7	16
0	491200	49119.9	24
0	491614	49161.3	27
0	494904	49490.3	8
0	495180	49517.9	15
0	498748	49874.7	26
0	499052	49905.1	40
0	499446	49944.5	16
0	501876	50187.5	15
0	502452	50245.1	52
0	504346	50434.5	10
0	505578	50557.7	5
0	507870	50786.9	70
0	510972	51097.1	11
0	511860	51185.9	85
0	512250	51224.9	39
0	515292	51529.1	31
0	515624	51562.3	5
0	516188	51618.7	2
0	516758	51675.7	23
0	517362	51736.1	5
0	517416	51741.5	25
0	517816	51781.5	5
0	520096	52009.5	12
0	521116	52111.5	10
0	521314	52131.3	13
0	522360	52235.9	37
0	522634	52263.3	86
0	524164	52416.3	144
0	525890	52588.9	125
0	525892	52589.1	1
0	526972	52697.1	13
0	527748	52774.7	59
0	528260	52825.9	42
0	529726	52972.5	55
0	530008	53000.7	10
0	530078	53007.7	37
0	530112	53011.1	7
0	530324	53032.3	14
0	531208	53120.7	12
0	531896	53189.5	65
0	532134	53213.3	98
0	534788	53478.7	8
0	535402	53540.1	45
0	535478	53547.7	9
0	538696	53869.5	16
0	538736	53873.5	2
0	542384	54238.3	111
0	548068	54806.7	19
0	549322	54932.1	19
0	549844	54984.3	16
0	557460	55745.9	27
0	557814	55781.3	2
0	559526	55952.5	29
0	559834	55983.3	28
0	559924	55992.3	45
0	560790	56078.9	14
0	561770	56176.9	14
0	563116	56311.5	8
0	563842	56384.1	24
0	564594	56459.3	11
0	564842	56484.1	112
0	566368	56636.7	1
0	567234	56723.3	37
0	570790	57078.9	108
0	573734	57373.3	7
0	574106	57410.5	8
0	574570	57456.9	73
0	574970	57496.9	23
0	577390	57738.9	13
0	579104	57910.3	30
0	579294	57929.3	10
0	580368	58036.7	14
0	581474	58147.3	14
0	583004	58300.3	18
0	586112	58611.1	20
0	586216	58621.5	5
0	587998	58799.7	73
0	589634	58963.3	13
0	590322	59032.1	91
0	590510	59050.9	143
0	590990	59098.9	48
0	591344	59134.3	1
0	592214	59221.3	11
0	593210	59320.9	16
0	594340	59433.9	22
0	595934	59593.3	4
0	596126	59612.5	3
0	596424	59642.3	19
0	597688	59768.7	10
0	599232	59923.1	4
0	599622	59962.1	68
0	600506	60050.5	25
0	602018	60201.7	17
0	602038	60203.7	19
0	602876	60287.5	32
0	603026	60302.5	25
0	605946	60594.5	4
0	607158	60715.7	4
0	608722	60872.1	14
0	613156	61315.5	48
0	613196	61319.5	25
0	613698	61369.7	63
0	615714	61571.3	37
0	618052	61805.1	21
0	619344	61934.3	23
0	624096	62409.5	19
0	625230	62522.9	3
0	625990	62598.9	172
0	630116	63011.5	2
0	632760	63275.9	71
0	633012	63301.1	26
0	634500	63449.9	62
0	638296	63829.5	29
0	639496	63949.5	8
0	640556	64055.5	5
0	641494	64149.3	5
0	641992	64199.1	59
0	642126	64212.5	102
0	643700	64369.9	83
0	645930	64592.9	80
0	648532	64853.1	23
0	651002	65100.1	101
0	652596	65259.5	22
0	653212	65321.1	28
0	653564	65356.3	42
0	657028	65702.7	17
0	657706	65770.5	36
0	658776	65877.5	28
0	659806	65980.5	22
0	661132	66113.1	35
0	663632	66363.1	47
0	667454	66745.3	45
0	668042	66804.1	4
0	669096	66909.5	7
0	672028	67202.7	30
0	681918	68191.7	3
0	683034	68303.3	3
0	683924	68392.3	18
0	687942	68794.1	36
0	688760	68875.9	210
0	688896	68889.5	120
0	695818	69581.7	61
0	698186	69818.5	57
0	700386	70038.5	22
0	701034	70103.3	19
0	702446	70244.5	5
0	702936	70293.5	25
0	704114	70411.3	15
0	704632	70463.1	68
0	705896	70589.5	76
0	707042	70704.1	41
0	707918	70791.7	39
0	709662	70966.1	116
0	713160	71315.9	3
0	714858	71485.7	5
0	715154	71515.3	17
0	715406	71540.5	76
0	718220	71821.9	55
0	718226	71822.5	4
0	719666	71966.5	121
0	719812	71981.1	9
0	721740	72173.9	20
0	722922	72292.1	93
0	724044	72404.3	23
0	725154	72515.3	56
0	725868	72586.7	36
0	726610	72660.9	42
0	726984	72698.3	12
0	728892	72889.1	100
0	730826	73082.5	9
0	731456	73145.5	21
0	731728	73172.7	80
0	735272	73527.1	44
0	735604	73560.3	41
0	739270	73926.9	63
0	740456	74045.5	41
0	740984	74098.3	28
0	741562	74156.1	7
0	743140	74313.9	5
0	745242	74524.1	7
0	747390	74738.9	69
0	751820	75181.9	42
0	753436	75343.5	2
0	756000	75599.9	56
0	760968	76096.7	21
0	762234	76223.3	10
0	764658	76465.7	71
0	765356	76535.5	105
0	765456	76545.5	81
0	768458	76845.7	5
0	768536	76853.5	40
0	769080	76907.9	193
0	770882	77088.1	9
0	773256	77325.5	105
0	773462	77346.1	12
0	774344	77434.3	15
0	774946	77494.5	46
0	777000	77699.9	38
0	777310	77730.9	40
0	779230	77922.9	82
0	782902	78290.1	16
0	785868	78586.7	22
0	789002	78900.1	10
0	789226	78922.5	1
0	789676	78967.5	26
0	793268	79326.7	19
0	793980	79397.9	77
0	794596	79459.5	59
0	795340	79533.9	97
0	796924	79692.3	116
0	797382	79738.1	3
0	797810	79780.9	23
0	798988	79898.7	113
0	799438	79943.7	41
0	799800	79979.9	2
0	799968	79996.7	49
0	800540	80053.9	66
0	801966	80196.5	26
0	805642	80564.1	26
0	809332	80933.1	1
0	810072	81007.1	128
0	810182	81018.1	53
0	810328	81032.7	63
0	814990	81498.9	3
0	815156	81515.5	25
0	819856	81985.5	42
0	820366	82036.5	43
0	822090	82208.9	18
0	824068	82406.7	22
0	824184	82418.3	17
0	825254	82525.3	11
0	827756	82775.5	128
0	827964	82796.3	14
0	828214	82821.3	90
0	828480	82847.9	53
0	831018	83101.7	12
0	831382	83138.1	95
0	836564	83656.3	7
0	839932	83993.1	10
0	840482	84048.1	60
0	840796	84079.5	34
0	841568	84156.7	4
0	842742	84274.1	44
0	842780	84277.9	25
0	844674	84467.3	49
0	845328	84532.7	1
0	847538	84753.7	11
0	847802	84780.1	5
0	848546	84854.5	100
0	849290	84928.9	128
0	849606	84960.5	46
0	850290	85028.9	57
0	852612	85261.1	35
0	853478	85347.7	44
0	853646	85364.5	1
0	854630	85462.9	91
0	856786	85678.5	103
0	858896	85889.5	31
0	858996	85899.5	39
0	859916	85991.5	3
0	862610	86260.9	109
0	863662	86366.1	5
0	864378	86437.7	57
0	866712	86671.1	1
0	868174	86817.3	7
0	868242	86824.1	11
0	868678	86867.7	8
0	870126	87012.5	95
0	872132	87213.1	5
0	873016	87301.5	42
0	874188	87418.7	72
0	874336	87433.5	13
0	875194	87519.3	11
0	875352	87535.1	19
0	876130	87612.9	30
0	876214	87621.3	3
0	876476	87647.5	137
0	877618	87761.7	5
0	878176	87817.5	22
0	878390	87838.9	11
0	880482	88048.1	22
0	881212	88121.1	19
0	881618	88161.7	36
0	881666	88166.5	24
0	881892	88189.1	37
0	882700	88269.9	9
0	882748	88274.7	9
0	883080	88307.9	56
0	883708	88370.7	5
0	884520	88451.9	8
0	885052	88505.1	179
0	887090	88708.9	4
0	888840	88883.9	3
0	889702	88970.1	67
0	895976	89597.5	22
0	896650	89664.9	99
0	896880	89687.9	76
0	898318	89831.7	75
0	898784	89878.3	49
0	902196	90219.5	19
0	902272	90227.1	23
0	902576	90257.5	51
0	903556	90355.5	103
0	903784	90378.3	16
0	904888	90488.7	37
0	905274	90527.3	54
0	907494	90749.3	12
0	908126	90812.5	121
0	909002	90900.1	17
0	909792	90979.1	30
0	912698	91269.7	23
0	914594	91459.3	66
0	914792	91479.1	29
0	915744	91574.3	15
0	916326	91632.5	79
0	917972	91797.1	55
0	918140	91813.9	2
0	921238	92123.7	2
0	922016	92201.5	3
0	922840	92283.9	14
0	923132	92313.1	4
0	926346	92634.5	21
0	926534	92653.3	2
0	926980	92697.9	39
0	927332	92733.1	24
0	928420	92841.9	122
0	928616	92861.5	7
0	929170	92916.9	5
0	930544	93054.3	11
0	930960	93095.9	8
0	931120	93111.9	31
0	931840	93183.9	2
0	933190	93318.9	8
0	934382	93438.1	125
0	937158	93715.7	14
0	937486	93748.5	41
0	937832	93783.1	24
0	938024	93802.3	4
0	938318	93831.7	41
0	939216	93921.5	18
0	939834	93983.3	8
0	940450	94044.9	25
0	947408	94740.7	27
0	948224	94822.3	15
0	949242	94924.1	18
0	955464	95546.3	133
0	959188	95918.7	23
0	960494	96049.3	15
0	960884	96088.3	139
0	961904	96190.3	24
0	962564	96256.3	9
0	965596	96559.5	20
0	967968	96796.7	7
0	970382	97038.1	2
0	976638	97663.7	184
0	976776	97677.5	6
0	977900	97789.9	2
0	979420	97941.9	19
0	983030	98302.9	36
0	983974	98397.3	44
0	984400	98439.9	206
0	984452	98445.1	37
0	985392	98539.1	4
0	985554	98555.3	50
0	986300	98629.9	18
0	986546	98654.5	80
0	986626	98662.5	47
0	990112	99011.1	133
0	992662	99266.1	68
0	993094	99309.3	89
0	995266	99526.5	14
0	995298	99529.7	2
0	996726	99672.5	17
0	997194	99719.3	49
0	998382	99838.1	41
0	999948	99994.7	96
0	1001830	100182.9	63
0	1002582	100258.1	11
0	1002724	100272.3	5
0	1003680	100367.9	31
0	1004590	100458.9	40
0	1004992	100499.1	25
0	1005696	100569.5	11
0	1005992	100599.1	10
0	1006210	100620.9	36
0	1006810	100680.9	6
0	1009628	100962.7	38
0	1012728	101272.7	1
0	1013192	101319.1	88
0	1013348	101334.7	47
0	1014294	101429.3	3
0	1014638	101463.7	46
0	1016382	101638.1	24
0	1016548	101654.7	3
0	1016804	101680.3	24
0	1017050	101704.9	12
0	1017522	101752.1	1
0	1017890	101788.9	7
0	1018854	101885.3	7
0	1020142	102014.1	23
0	1022162	102216.1	29
0	1022624	102262.3	52
0	1025738	102573.7	118
0	1028174	102817.3	23
0	1030588	103058.7	2
0	1030880	103087.9	61
0	1031572	103157.1	5
0	1032308	103230.7	9
0	1032464	103246.3	12
0	1032660	103265.9	84
0	1033090	103308.9	7
0	1033294	103329.3	61
0	1034196	103419.5	23
0	1039604	103960.3	26
0	1040402	104040.1	30
0	1043830	104382.9	22
0	1044546	104454.5	23
0	1046094	104609.3	3
0	1046594	104659.3	44
0	1047380	104737.9	35
0	1047980	104797.9	4
0	1048182	104818.1	68
0	1049288	104928.7	9
0	1052548	105254.7	10
0	1053684	105368.3	4
0	1055738	105573.7	5
0	1056956	105695.5	8
0	1057546	105754.5	20
0	1058590	105858.9	35
0	1058716	105871.5	17
0	1059240	105923.9	13
0	1060016	106001.5	3
0	1060412	106041.1	9
0	1060584	106058.3	22
0	1061540	106153.9	3
0	1063480	106347.9	10
0	1063624	106362.3	10
0	1063950	106394.9	9
0	1064244	106424.3	4
0	1065018	106501.7	22
0	1065784	106578.3	14
0	1067354	106735.3	9
0	1069172	106917.1	25
0	1070616	107061.5	54
0	1072526	107252.5	103
0	1073308	107330.7	107
0	1074002	107400.1	36
0	1075304	107530.3	10
0	1075982	107598.1	31
0	1076060	107605.9	9
0	1077330	107732.9	43
0	1078298	107829.7	15
0	1080420	108041.9	22
0	1081284	108128.3	11
0	1081914	108191.3	80
0	1083800	108379.9	47
0	1085386	108538.5	66
0	1086814	108681.3	29
0	1087736	108773.5	10
0	1088276	108827.5	99
0	1090036	109003.5	60
0	1092754	109275.3	2
0	1092870	109286.9	5
0	1095714	109571.3	2
0	1096160	109615.9	13
0	1097590	109758.9	10
0	1097798	109779.7	46
0	1098850	109884.9	7
0	1101240	110123.9	7
0	1102130	110212.9	3
0	1103016	110301.5	18
0	1103054	110305.3	3
0	1104292	110429.1	45
0	1106436	110643.5	23
0	1106904	110690.3	108
0	1108656	110865.5	152
0	1109170	110916.9	60
0	1110148	111014.7	82
0	1110812	111081.1	53
0	1111526	111152.5	15
0	1112156	111215.5	40
0	1113958	111395.7	19
0	1116522	111652.1	11
0	1118070	111806.9	16
0	1119754	111975.3	86
0	1120010	112000.9	10
0	1134084	113408.3	87
0	1135216	113521.5	14
0	1136338	113633.7	3
0	1136482	113648.1	56
0	1136792	113679.1	3
0	1138548	113854.7	14
0	1138644	113864.3	15
0	1142972	114297.1	63
0	1143802	114380.1	127
0	1146292	114629.1	5
0	1146584	114658.3	24
0	1149662	114966.1	8
0	1151320	115131.9	6
0	1152278	115227.7	86
0	1152802	115280.1	18
0	1154746	115474.5	96
0	1158538	115853.7	5
0	1163200	116319.9	16
0	1163378	116337.7	33
0	1165338	116533.7	6
0	1165540	116553.9	74
0	1167586	116758.5	66
0	1167942	116794.1	55
0	1170706	117070.5	60
0	1171386	117138.5	32
0	1171570	117156.9	29
0	1172220	117221.9	4
0	1174178	117417.7	7
0	1174968	117496.7	34
0	1177738	117773.7	9
0	1179284	117928.3	41
0	1179390	117938.9	66
0	1180696	118069.5	5
0	1181388	118138.7	26
0	1182210	118220.9	18
0	1185244	118524.3	59
0	1186024	118602.3	32
0	1189656	118965.5	10
0	1191626	119162.5	52
0	1191734	119173.3	31
0	1191788	119178.7	53
0	1193754	119375.3	24
0	1193886	119388.5	70
0	1197606	119760.5	23
0	1198318	119831.7	47
0	1198832	119883.1	33
0	1199638	119963.7	15
0	1200236	120023.5	105
0	1202704	120270.3	57
0	1203134	120313.3	37
0	1204158	120415.7	45
0	1204186	120418.5	10
0	1204392	120439.1	7
0	1204410	120440.9	6
0	1205046	120504.5	27
0	1206524	120652.3	3
0	1207134	120713.3	54
0	1207666	120766.5	278
0	1208194	120819.3	48
0	1210888	121088.7	7
0	1211486	121148.5	2
0	1212358	121235.7	79
0	1213518	121351.7	40
0	1213638	121363.7	43
0	1215862	121586.1	19
0	1219022	121902.1	7
0	1219036	121903.5	13
0	1219834	121983.3	9
0	1225964	122596.3	6
0	1226114	122611.3	23
0	1226520	122651.9	3
0	1229034	122903.3	30
0	1230024	123002.3	31
0	1231620	123161.9	7
0	1232270	123226.9	6
0	1232416	123241.5	87
0	1233440	123343.9	30
0	1234082	123408.1	30
0	1235738	123573.7	149
0	1236198	123619.7	10
0	1238026	123802.5	46
0	1239182	123918.1	29
0	1240288	124028.7	54
0	1241152	124115.1	55
0	1242024	124202.3	5
0	1242534	124253.3	2
0	1244138	124413.7	33
0	1244366	124436.5	82
0	1245474	124547.3	6
0	1245520	124551.9	15
0	1245720	124571.9	8
0	1247394	124739.3	14
0	1250232	125023.1	70
0	1252070	125206.9	46
0	1252354	125235.3	105
0	1252818	125281.7	4
0	1254286	125428.5	59
0	1260064	126006.3	28
0	1261170	126116.9	81
0	1261522	126152.1	15
0	1261832	126183.1	8
0	1261890	126188.9	2
0	1262882	126288.1	3
0	1263328	126332.7	32
0	1264092	126409.1	3
0	1264872	126487.1	19
0	1266520	126651.9	10
0	1269522	126952.1	10
0	1269524	126952.3	1
0	1270938	127093.7	131
0	1273942	127394.1	195
0	1276936	127693.5	21
0	1278288	127828.7	60
0	1280252	128025.1	20
0	1280752	128075.1	7
0	1283218	128321.7	18
0	1285656	128565.5	42
0	1286636	128663.5	152
0	1287412	128741.1	48
0	1288012	128801.1	35
0	1290596	129059.5	73
0	1291818	129181.7	5
0	1293104	129310.3	8
0	1293834	129383.3	27
0	1295268	129526.7	83
0	1295820	129581.9	84
0	1296528	129652.7	1
0	1297830	129782.9	3
0	1299192	129919.1	27
0	1299454	129945.3	172
0	1300162	130016.1	3
0	1300660	130065.9	89
0	1301796	130179.5	57
0	1306438	130643.7	33
0	1306808	130680.7	22
0	1308014	130801.3	61
0	1308856	130885.5	9
0	1308934	130893.3	32
0	1310964	131096.3	3
0	1311868	131186.7	4
0	1312234	131223.3	48
0	1313960	131395.9	9
0	1314444	131444.3	35
0	1314946	131494.5	7
0	1316204	131620.3	56
0	1316852	131685.1	2
0	1317034	131703.3	3
0	1317154	131715.3	44
0	1317578	131757.7	52
0	1318158	131815.7	18
0	1319960	131995.9	3
0	1324660	132465.9	26
0	1324692	132469.1	11
0	1328244	132824.3	61
0	1329696	132969.5	5
0	1330056	133005.5	26
0	1332556	133255.5	8
0	1332698	133269.7	14
0	1333730	133372.9	3
0	1334238	133423.7	19
0	1335152	133515.1	56
0	1336824	133682.3	3
0	1336936	133693.5	22
0	1336992	133699.1	33
0	1338776	133877.5	54
0	1339868	133986.7	90
0	1342272	134227.1	14
0	1343366	134336.5	8
0	1346392	134639.1	12
0	1346422	134642.1	26
0	1347364	134736.3	154
0	1348540	134853.9	28
0	1349422	134942.1	75
0	1350004	135000.3	47
0	1351900	135189.9	22
0	1355238	135523.7	55
0	1357488	135748.7	2
0	1358158	135815.7	6
0	1358234	135823.3	18
0	1359728	135972.7	35
0	1360492	136049.1	6
0	1361316	136131.5	6
0	1362140	136213.9	11
0	1364594	136459.3	6
0	1365088	136508.7	12
0	1368472	136847.1	55
0	1370086	137008.5	34
0	1370636	137063.5	39
0	1370686	137068.5	21
0	1371102	137110.1	11
0	1373250	137324.9	74
0	1373720	137371.9	20
0	1374594	137459.3	68
0	1375478	137547.7	2
0	1377222	137722.1	8
0	1377878	137787.7	44
0	1378228	137822.7	9
0	1379472	137947.1	69
0	1379778	137977.7	3
0	1381682	138168.1	15
0	1383348	138334.7	29
0	1384626	138462.5	71
0	1387312	138731.1	13
0	1390200	139019.9	7
0	1390388	139038.7	53
0	1392292	139229.1	16
0	1393190	139318.9	24
0	1394484	139448.3	55
0	1395016	139501.5	107
0	1395682	139568.1	110
0	1396060	139605.9	10
0	1396718	139671.7	25
0	1397212	139721.1	116
0	1397740	139773.9	29
0	1397940	139793.9	5
0	1399382	139938.1	3
0	1400600	140059.9	53
0	1401514	140151.3	5
0	1401764	140176.3	59
0	1402196	140219.5	27
0	1403178	140317.7	35
0	1403916	140391.5	9
0	1404820	140481.9	7
0	1405012	140501.1	9
0	1407232	140723.1	2
0	1407882	140788.1	57
0	1410380	141037.9	13
0	1410538	141053.7	43
0	1412282	141228.1	133
0	1413724	141372.3	81
0	1415176	141517.5	185
0	1419206	141920.5	2
0	1419590	141958.9	40
0	1419804	141980.3	6
0	1421098	142109.7	134
0	1422346	142234.5	29
0	1423922	142392.1	20
0	1424406	142440.5	1
0	1424850	142484.9	8
0	1425680	142567.9	45
0	1427942	142794.1	134
0	1429174	142917.3	23
0	1431240	143123.9	7
0	1433058	143305.7	7
0	1438028	143802.7	11
0	1441240	144123.9	13
0	1442338	144233.7	5
0	1443910	144390.9	89
0	1444862	144486.1	25
0	1449172	144917.1	48
0	1449720	144971.9	43
0	1449748	144974.7	2
0	1449874	144987.3	33
0	1450168	145016.7	37
0	1450182	145018.1	12
0	1450960	145095.9	5
0	1450990	145098.9	20
0	1452976	145297.5	42
0	1454932	145493.1	68
0	1456022	145602.1	20
0	1458642	145864.1	3
0	1459102	145910.1	75
0	1459832	145983.1	82
0	1463168	146316.7	24
0	1467648	146764.7	218
0	1472344	147234.3	83
0	1473550	147354.9	25
0	1476748	147674.7	62
0	1477756	147775.5	21
0	1478518	147851.7	11
0	1481090	148108.9	29
0	1482410	148240.9	76
0	1485782	148578.1	177
0	1485890	148588.9	13
0	1487872	148787.1	79
0	1489834	148983.3	38
0	1494242	149424.1	116
0	1494396	149439.5	20
0	1498666	149866.5	4
0	1499166	149916.5	75
0	1499236	149923.5	51
0	1499918	149991.7	78
0	1499970	149996.9	29
0	1500670	150066.9	12
0	1501366	150136.5	30
0	1501916	150191.5	19
0	1502292	150229.1	21
0	1503496	150349.5	79
0	1503796	150379.5	8
0	1504980	150497.9	1
0	1510522	151052.1	33
0	1514108	151410.7	61
0	1514914	151491.3	17
0	1515158	151515.7	31
0	1515352	151535.1	96
0	1521156	152115.5	16
0	1521454	152145.3	2
0	1521896	152189.5	225
0	1527016	152701.5	19
0	1527086	152708.5	57
0	1530742	153074.1	89
0	1531250	153124.9	8
0	1531778	153177.7	53
0	1532524	153252.3	6
0	1532868	153286.7	27
0	1535474	153547.3	15
0	1535596	153559.5	17
0	1535608	153560.7	4
0	1535746	153574.5	9
0	1537404	153740.3	23
0	1539246	153924.5	22
0	1540200	154019.9	1
0	1540692	154069.1	9
0	1541286	154128.5	11
0	1542178	154217.7	10
0	1544342	154434.1	15
0	1547220	154721.9	27
0	1549230	154922.9	3
0	1549510	154950.9	74
0	1553162	155316.1	55
0	1554248	155424.7	7
0	1555362	155536.1	15
0	1555612	155561.1	114
0	1556460	155645.9	48
0	1556654	155665.3	32
0	1558360	155835.9	5
0	1560098	156009.7	46
0	1560712	156071.1	7
0	1561412	156141.1	90
0	1561626	156162.5	89
0	1565552	156555.1	108
0	1570802	157080.1	35
0	1571812	157181.1	2
0	1573798	157379.7	6
0	1574372	157437.1	2
0	1574640	157463.9	96
0	1574824	157482.3	7
0	1574944	157494.3	30
0	1574998	157499.7	4
0	1575336	157533.5	76
0	1575420	157541.9	15
0	1576180	157617.9	86
0	1577342	157734.1	16
0	1578754	157875.3	11
0	1581080	158107.9	141
0	1581662	158166.1	28
0	1582146	158214.5	52
0	1582434	158243.3	14
0	1582742	158274.1	22
0	1583394	158339.3	33
0	1588020	158801.9	15
0	1589920	158991.9	81
0	1592682	159268.1	47
0	1594122	159412.1	57
0	1594332	159433.1	56
0	1595576	159557.5	138
0	1598916	159891.5	40
0	1599066	159906.5	52
0	1602690	160268.9	42
0	1605018	160501.7	62
0	1605912	160591.1	25
0	1608690	160868.9	77
0	1611118	161111.7	11
0	1613530	161352.9	8
0	1614072	161407.1	38
0	1615572	161557.1	10
0	1616128	161612.7	13
0	1616324	161632.3	28
0	1616746	161674.5	53
0	1617230	161722.9	81
0	1617486	161748.5	127
0	1617758	161775.7	100
0	1619204	161920.3	44
0	1620304	162030.3	18
0	1622530	162252.9	2
0	1622690	162268.9	48
0	1623750	162374.9	3
0	1626424	162642.3	28
0	1626616	162661.5	78
0	1628350	162834.9	96
0	1630948	163094.7	3
0	1633274	163327.3	18
0	1633854	163385.3	15
0	1634078	163407.7	2
0	1636456	163645.5	21
0	1637620	163761.9	12
0	1642472	164247.1	12
0	1643604	164360.3	47
0	1644438	164443.7	80
0	1648480	164847.9	25
0	1649686	164968.5	34
0	1655854	165585.3	5
0	1656858	165685.7	43
0	1658232	165823.1	26
0	1658334	165833.3	7
0	1658378	165837.7	4
0	1658840	165883.9	51
0	1663388	166338.7	58
0	1665482	166548.1	27
0	1666224	166622.3	9
0	1666272	166627.1	10
0	1666664	166666.3	1
0	1666938	166693.7	7
0	1671020	167101.9	5
0	1672464	167246.3	31
0	1672496	167249.5	20
0	1673440	167343.9	14
0	1674850	167484.9	82
0	1674934	167493.3	2
0	1676098	167609.7	159
0	1676476	167647.5	25
0	1676624	167662.3	25
0	1678504	167850.3	11
0	1681138	168113.7	112
0	1683652	168365.1	3
0	1685312	168531.1	22
0	1686764	168676.3	90
0	1687362	168736.1	14
0	1688058	168805.7	155
0	1689170	168916.9	6
0	1689522	168952.1	37
0	1689672	168967.1	24
0	1692480	169247.9	45
0	1693730	169372.9	25
0	1694048	169404.7	21
0	1698752	169875.1	39
0	1699230	169922.9	30
0	1699354	169935.3	2
0	1700772	170077.1	37
0	1703026	170302.5	5
0	1704006	170400.5	40
0	1704726	170472.5	55
0	1708044	170804.3	3
0	1708904	170890.3	44
0	1709134	170913.3	62
0	1711870	171186.9	41
0	1712720	171271.9	43
0	1713742	171374.1	67
0	1716546	171654.5	56
0	1719424	171942.3	41
0	1719472	171947.1	14
0	1720636	172063.5	55
0	1723280	172327.9	26
0	1724304	172430.3	19