version 3
run General-122-20230611-05:41:41-416641
attr configname General
attr datetime 20230611-05:41:41
attr datetimef 20230611-054141
attr experiment General
attr inifile omnetpp.ini
attr iterationvars $N=94
attr iterationvarsd N=94
attr iterationvarsf N=94-
attr measurement $N=94
attr network LN
attr processid 416641
attr repetition 2
attr replication #2
attr resultdir results
attr runnumber 122
attr seedset 122
itervar N 94
config network LN
config sim-time-limit 250000s
config **.tic[*].hopCount.result-recording-modes +vector
config *.numCentralNodes 94
config repeat 4

vector 0 LN.lnd[16] hopCount:vector ETV
attr interpolationmode none
attr recordingmode vector
attr source arrival
attr title "hop count"
vector 1 LN.lnd[9] hopCount:vector ETV
attr interpolationmode none
attr recordingmode vector
attr source arrival
attr title "hop count"
vector 2 LN.lnd[0] hopCount:vector ETV
attr interpolationmode none
attr recordingmode vector
attr source arrival
attr title "hop count"
vector 3 LN.lnd[13] hopCount:vector ETV
attr interpolationmode none
attr recordingmode vector
attr source arrival
attr title "hop count"
vector 4 LN.lnd[2] hopCount:vector ETV
attr interpolationmode none
attr recordingmode vector
attr source arrival
attr title "hop count"
vector 5 LN.lnd[18] hopCount:vector ETV
attr interpolationmode none
attr recordingmode vector
attr source arrival
attr title "hop count"
vector 6 LN.lnd[17] hopCount:vector ETV
attr interpolationmode none
attr recordingmode vector
attr source arrival
attr title "hop count"
vector 7 LN.lnd[1] hopCount:vector ETV
attr interpolationmode none
attr recordingmode vector
attr source arrival
attr title "hop count"
vector 8 LN.lnd[6] hopCount:vector ETV
attr interpolationmode none
attr recordingmode vector
attr source arrival
attr title "hop count"
vector 9 LN.lnd[10] hopCount:vector ETV
attr interpolationmode none
attr recordingmode vector
attr source arrival
attr title "hop count"
vector 10 LN.lnd[4] hopCount:vector ETV
attr interpolationmode none
attr recordingmode vector
attr source arrival
attr title "hop count"
vector 11 LN.lnd[12] hopCount:vector ETV
attr interpolationmode none
attr recordingmode vector
attr source arrival
attr title "hop count"
vector 12 LN.lnd[19] hopCount:vector ETV
attr interpolationmode none
attr recordingmode vector
attr source arrival
attr title "hop count"
vector 13 LN.lnd[3] hopCount:vector ETV
attr interpolationmode none
attr recordingmode vector
attr source arrival
attr title "hop count"
vector 14 LN.lnd[14] hopCount:vector ETV
attr interpolationmode none
attr recordingmode vector
attr source arrival
attr title "hop count"
vector 15 LN.lnd[11] hopCount:vector ETV
attr interpolationmode none
attr recordingmode vector
attr source arrival
attr title "hop count"
vector 16 LN.lnd[5] hopCount:vector ETV
attr interpolationmode none
attr recordingmode vector
attr source arrival
attr title "hop count"
vector 17 LN.lnd[15] hopCount:vector ETV
attr interpolationmode none
attr recordingmode vector
attr source arrival
attr title "hop count"
vector 18 LN.lnd[8] hopCount:vector ETV
attr interpolationmode none
attr recordingmode vector
attr source arrival
attr title "hop count"
vector 19 LN.lnd[7] hopCount:vector ETV
attr interpolationmode none
attr recordingmode vector
attr source arrival
attr title "hop count"
0	201	20	200
0	1799	179.8	384
0	4453	445.2	37
0	7499	749.8	250
0	8687	868.6	278
0	9339	933.8	184
0	9589	958.8	123
0	10861	1086	503
0	14691	1469	117
0	17139	1713.8	81
0	17321	1732	13
0	18247	1824.6	169
0	18459	1845.8	15
0	20985	2098.4	115
0	23055	2305.4	57
0	24351	2435	129
0	24531	2453	104
0	25029	2502.8	12
0	25463	2546.2	322
0	27701	2770	16
0	28189	2818.8	312
0	29151	2915	172
0	30431	3043	209
0	30473	3047.2	35
0	32685	3268.4	106
0	33243	3324.2	210
0	34325	3432.4	11
0	34435	3443.4	69
0	38319	3831.8	78
0	38389	3838.8	28
0	39339	3933.8	188
0	40125	4012.4	310
0	40621	4062	11
0	41001	4100	45
0	42009	4200.8	62
0	42461	4246	260
0	43401	4340	347
0	44387	4438.6	58
0	44663	4466.2	103
0	45355	4535.4	46
0	46007	4600.6	25
0	47165	4716.4	105
0	47317	4731.6	53
0	49959	4995.8	27
0	50121	5012	121
0	51237	5123.6	163
0	53461	5346	65
0	53537	5353.6	67
0	54053	5405.2	116
0	55105	5510.4	17
0	55643	5564.2	229
0	56471	5647	65
0	56807	5680.6	151
0	57845	5784.4	43
0	58417	5841.6	36
0	60035	6003.4	104
0	62309	6230.8	246
0	63193	6319.2	61
0	64821	6482	327
0	65257	6525.6	129
0	65345	6534.4	20
0	66511	6651	28
0	68667	6866.6	358
0	68871	6887	135
0	70473	7047.2	219
0	71673	7167.2	133
0	71767	7176.6	74
0	72161	7216	123
0	74309	7430.8	1
0	79083	7908.2	86
0	82405	8240.4	163
0	82525	8252.4	21
0	82663	8266.2	5
0	84565	8456.4	55
0	85689	8568.8	32
0	85891	8589	66
0	85913	8591.2	14
0	87615	8761.4	122
0	88865	8886.4	48
0	90303	9030.2	1
0	93149	9314.8	238
0	94085	9408.4	331
0	94673	9467.2	9
0	95557	9555.6	413
0	98385	9838.4	87
0	98455	9845.4	49
0	99141	9914	62
0	100089	10008.8	205
0	100103	10010.2	3
0	101281	10128	147
0	102555	10255.4	7
0	102843	10284.2	67
0	107473	10747.2	33
0	108433	10843.2	243
0	112173	11217.2	190
0	112483	11248.2	12
0	113585	11358.4	87
0	116645	11664.4	348
0	118393	11839.2	106
0	119773	11977.2	45
0	124147	12414.6	247
0	125969	12596.8	296
0	127897	12789.6	34
0	129241	12924	237
0	129953	12995.2	131
0	130549	13054.8	28
0	131973	13197.2	230
0	132989	13298.8	124
0	133959	13395.8	93
0	137001	13700	17
0	138943	13894.2	70
0	139269	13926.8	220
0	144031	14403	228
0	144843	14484.2	144
0	148573	14857.2	3
0	151863	15186.2	315
0	152197	15219.6	91
0	152505	15250.4	1
0	152793	15279.2	49
0	152897	15289.6	87
0	152955	15295.4	22
0	153043	15304.2	54
0	153443	15344.2	23
0	153895	15389.4	63
0	154127	15412.6	35
0	154501	15450	3
0	155687	15568.6	70
0	156289	15628.8	16
0	157145	15714.4	7
0	158627	15862.6	133
0	159167	15916.6	257
0	160225	16022.4	178
0	161935	16193.4	7
0	162765	16276.4	318
0	166045	16604.4	140
0	166473	16647.2	371
0	168463	16846.2	46
0	168487	16848.6	11
0	172059	17205.8	70
0	174997	17499.6	337
0	175579	17557.8	75
0	178631	17863	218
0	179083	17908.2	71
0	180077	18007.6	187
0	181243	18124.2	187
0	182311	18231	407
0	182713	18271.2	200
0	184265	18426.4	224
0	185747	18574.6	88
0	187767	18776.6	389
0	190659	19065.8	426
0	191491	19149	55
0	192199	19219.8	20
0	193663	19366.2	280
0	194109	19410.8	1
0	194919	19491.8	207
0	195145	19514.4	46
0	196429	19642.8	464
0	197655	19765.4	1
0	199761	19976	61
0	200145	20014.4	5
0	201617	20161.6	131
0	206979	20697.8	8
0	207391	20739	9
0	207697	20769.6	2
0	209215	20921.4	50
0	210821	21082	30
0	211923	21192.2	72
0	213377	21337.6	51
0	213901	21390	31
0	214877	21487.6	196
0	216029	21602.8	254
0	216317	21631.6	195
0	217113	21711.2	134
0	219173	21917.2	268
0	220325	22032.4	206
0	220489	22048.8	18
0	222987	22298.6	59
0	225969	22596.8	300
0	226869	22686.8	90
0	227239	22723.8	196
0	228539	22853.8	77
0	228821	22882	20
0	228957	22895.6	31
0	231145	23114.4	13
0	233311	23331	1
0	233435	23343.4	48
0	234101	23410	148
0	234185	23418.4	66
0	237065	23706.4	4
0	239167	23916.6	176
0	240913	24091.2	247
0	241717	24171.6	117
0	243027	24302.6	111
0	243261	24326	83
0	248629	24862.8	79
0	252235	25223.4	329
0	253417	25341.6	108
0	253627	25362.6	61
0	254271	25427	12
0	258303	25830.2	9
0	260789	26078.8	117
0	262023	26202.2	70
0	262115	26211.4	1
0	263575	26357.4	42
0	264149	26414.8	92
0	264529	26452.8	201
0	265133	26513.2	277
0	265561	26556	94
0	265801	26580	35
0	269833	26983.2	289
0	271829	27182.8	13
0	272403	27240.2	194
0	272535	27253.4	126
0	272783	27278.2	155
0	275527	27552.6	110
0	275789	27578.8	190
0	278377	27837.6	107
0	282393	28239.2	110
0	284593	28459.2	124
0	286205	28620.4	12
0	286785	28678.4	13
0	287255	28725.4	15
0	288241	28824	196
0	289157	28915.6	96
0	289825	28982.4	220
0	290739	29073.8	21
0	291961	29196	1
0	292993	29299.2	145
0	297233	29723.2	124
0	297609	29760.8	92
0	297717	29771.6	70
0	298363	29836.2	463
0	299449	29944.8	160
0	300109	30010.8	384
0	303669	30366.8	270
0	304229	30422.8	150
0	304733	30473.2	162
0	305311	30531	81
0	306975	30697.4	244
0	307693	30769.2	112
0	308039	30803.8	65
0	308803	30880.2	145
0	309055	30905.4	54
0	309227	30922.6	150
0	309639	30963.8	23
0	310191	31019	179
0	310857	31085.6	11
0	311785	31178.4	348
0	312681	31268	195
0	313507	31350.6	183
0	313605	31360.4	42
0	313931	31393	36
0	317119	31711.8	148
0	317297	31729.6	91
0	318805	31880.4	20
0	319323	31932.2	172
0	319757	31975.6	74
0	320331	32033	60
0	321549	32154.8	77
0	322365	32236.4	121
0	323017	32301.6	136
0	323489	32348.8	105
0	324525	32452.4	83
0	325527	32552.6	50
0	326413	32641.2	261
0	327781	32778	51
0	329311	32931	636
0	331815	33181.4	1109
0	333101	33310	3
0	334867	33486.6	664
0	336119	33611.8	31
0	336375	33637.4	134
0	337189	33718.8	32
0	337775	33777.4	134
0	339531	33953	20
0	341613	34161.2	38
0	341675	34167.4	55
0	342275	34227.4	335
0	343109	34310.8	73
0	343411	34341	31
0	344753	34475.2	164
0	353561	35356	32
0	354197	35419.6	128
0	354783	35478.2	76
0	355485	35548.4	173
0	355699	35569.8	5
0	356415	35641.4	12
0	357479	35747.8	35
0	358301	35830	22
0	358955	35895.4	72
0	362081	36208	201
0	363941	36394	29
0	366095	36609.4	66
0	368795	36879.4	279
0	370629	37062.8	87
0	371305	37130.4	132
0	371829	37182.8	89
0	374687	37468.6	158
0	375055	37505.4	141
0	375941	37594	303
0	377063	37706.2	197
0	378173	37817.2	46
0	378627	37862.6	335
0	378843	37884.2	100
0	378937	37893.6	25
0	379249	37924.8	49
0	379561	37956	113
0	381355	38135.4	93
0	384729	38472.8	274
0	386315	38631.4	133
0	386927	38692.6	46
0	387043	38704.2	54
0	387333	38733.2	115
0	392357	39235.6	21
0	394231	39423	86
0	395809	39580.8	22
0	399921	39992	161
0	402477	40247.6	233
0	402575	40257.4	16
0	403243	40324.2	69
0	404031	40403	5
0	405863	40586.2	79
0	408199	40819.8	101
0	410749	41074.8	75
0	410931	41093	30
0	414069	41406.8	99
0	414753	41475.2	283
0	414855	41485.4	51
0	416521	41652	282
0	417815	41781.4	143
0	420269	42026.8	74
0	420823	42082.2	35
0	421383	42138.2	6
0	422047	42204.6	205
0	422631	42263	39
0	422919	42291.8	16
0	425309	42530.8	179
0	425509	42550.8	56
0	425673	42567.2	26
0	425717	42571.6	25
0	426831	42683	401
0	428587	42858.6	149
0	430017	43001.6	37
0	436191	43619	35
0	436349	43634.8	18
0	436607	43660.6	30
0	439399	43939.8	119
0	440399	44039.8	3
0	440785	44078.4	11
0	442583	44258.2	30
0	444971	44497	94
0	445203	44520.2	7
0	446337	44633.6	207
0	448141	44814	1
0	448771	44877	52
0	449569	44956.8	17
0	449855	44985.4	9
0	453109	45310.8	285
0	454413	45441.2	61
0	456473	45647.2	129
0	458799	45879.8	16
0	461901	46190	50
0	463521	46352	99
0	466451	46645	73
0	466713	46671.2	35
0	467087	46708.6	271
0	467557	46755.6	177
0	468299	46829.8	85
0	469099	46909.8	35
0	469425	46942.4	185
0	471897	47189.6	392
0	473611	47361	127
0	474243	47424.2	212
0	474447	47444.6	144
0	474861	47486	27
0	474981	47498	116
0	478429	47842.8	232
0	478845	47884.4	96
0	479787	47978.6	51
0	480351	48035	10
0	481727	48172.6	145
0	486721	48672	211
0	487175	48717.4	72
0	492725	49272.4	57
0	494089	49408.8	6
0	495833	49583.2	36
0	496267	49626.6	6
0	497527	49752.6	209
0	501293	50129.2	59
0	501433	50143.2	48
0	504207	50420.6	13
0	504703	50470.2	18
0	507127	50712.6	135
0	507225	50722.4	64
0	507227	50722.6	1
0	509055	50905.4	5
0	510495	51049.4	182
0	512805	51280.4	410
0	513035	51303.4	122
0	513423	51342.2	107
0	513773	51377.2	7
0	515589	51558.8	9
0	516807	51680.6	575
0	517751	51775	118
0	518953	51895.2	376
0	519719	51971.8	148
0	521451	52145	74
0	524011	52401	15
0	525623	52562.2	153
0	526971	52697	10
0	530261	53026	4
0	531269	53126.8	115
0	531939	53193.8	3
0	533903	53390.2	302
0	535711	53571	44
0	536187	53618.6	78
0	536695	53669.4	55
0	537009	53700.8	109
0	539689	53968.8	91
0	542121	54212	168
0	542637	54263.6	187
0	543353	54335.2	123
0	544603	54460.2	1
0	545067	54506.6	228
0	545509	54550.8	74
0	545863	54586.2	108
0	547933	54793.2	337
0	547963	54796.2	6
0	551097	55109.6	1
0	553451	55345	31
0	556983	55698.2	73
0	560367	56036.6	41
0	560425	56042.4	37
0	560977	56097.6	46
0	561825	56182.4	1
0	562085	56208.4	80
0	563399	56339.8	292
0	565871	56587	74
0	566449	56644.8	193
0	569011	56901	51
0	570509	57050.8	84
0	570947	57094.6	4
0	571235	57123.4	136
0	575205	57520.4	17
0	576227	57622.6	368
0	578221	57822	122
0	578319	57831.8	1
0	580019	58001.8	131
0	581681	58168	50
0	582361	58236	68
0	583375	58337.4	121
0	585375	58537.4	56
0	585693	58569.2	73
0	588493	58849.2	101
0	589333	58933.2	85
0	590811	59081	47
0	591213	59121.2	140
0	592463	59246.2	196
0	594307	59430.6	244
0	596747	59674.6	253
0	597307	59730.6	59
0	600327	60032.6	158
0	600913	60091.2	209
0	601231	60123	56
0	601377	60137.6	36
0	603151	60315	233
0	603877	60387.6	187
0	604065	60406.4	73
0	610609	61060.8	25
0	612679	61267.8	223
0	613827	61382.6	3
0	614389	61438.8	75
0	615435	61543.4	1
0	616195	61619.4	174
0	616663	61666.2	46
0	617181	61718	294
0	619371	61937	359
0	620591	62059	33
0	624153	62415.2	185
0	625447	62544.6	55
0	626461	62646	28
0	626793	62679.2	57
0	628669	62866.8	67
0	629945	62994.4	4
0	632661	63266	1
0	633353	63335.2	38
0	634183	63418.2	24
0	635845	63584.4	29
0	636777	63677.6	144
0	638829	63882.8	939
0	639155	63915.4	8
0	639719	63971.8	1
0	640865	64086.4	27
0	641897	64189.6	110
0	642389	64238.8	54
0	643629	64362.8	354
0	645383	64538.2	76
0	647099	64709.8	1
0	648115	64811.4	3
0	651295	65129.4	40
0	651691	65169	100
0	657685	65768.4	12
0	658407	65840.6	48
0	658583	65858.2	150
0	658611	65861	10
0	660229	66022.8	337
0	660815	66081.4	305
0	661067	66106.6	233
0	663079	66307.8	147
0	663321	66332	45
0	664741	66474	5
0	666367	66636.6	157
0	666645	66664.4	21
0	666985	66698.4	49
0	668281	66828	19
0	673629	67362.8	1
0	673757	67375.6	18
0	674525	67452.4	5
0	675003	67500.2	341
0	675291	67529	2
0	676217	67621.6	34
0	677167	67716.6	85
0	678543	67854.2	89
0	680995	68099.4	23
0	683817	68381.6	25
0	684589	68458.8	99
0	685041	68504	9
0	686649	68664.8	141
0	687909	68790.8	116
0	688973	68897.2	55
0	689645	68964.4	191
0	689899	68989.8	16
0	690189	69018.8	245
0	690829	69082.8	10
0	692955	69295.4	105
0	696561	69656	109
0	696627	69662.6	57
0	696747	69674.6	62
0	697921	69792	20
0	698825	69882.4	54
0	699981	69998	125
0	700091	70009	32
0	700833	70083.2	128
0	701149	70114.8	167
0	703463	70346.2	107
0	705341	70534	42
0	707899	70789.8	45
0	708181	70818	131
0	708359	70835.8	3
0	710103	71010.2	25
0	710705	71070.4	254
0	712373	71237.2	90
0	712895	71289.4	267
0	715913	71591.2	33
0	716565	71656.4	168
0	717427	71742.6	175
0	718995	71899.4	204
0	719573	71957.2	5
0	720303	72030.2	12
0	720839	72083.8	204
0	721333	72133.2	55
0	721541	72154	88
0	722061	72206	44
0	722179	72217.8	64
0	722267	72226.6	17
0	723703	72370.2	200
0	723795	72379.4	42
0	728551	72855	170
0	730289	73028.8	18
0	731647	73164.6	64
0	736173	73617.2	144
0	739393	73939.2	117
0	740319	74031.8	93
0	740395	74039.4	1
0	741051	74105	208
0	742417	74241.6	164
0	743395	74339.4	291
0	743917	74391.6	237
0	744399	74439.8	23
0	744521	74452	119
0	745013	74501.2	227
0	745147	74514.6	80
0	745195	74519.4	22
0	745627	74562.6	193
0	747929	74792.8	204
0	748653	74865.2	198
0	748813	74881.2	1
0	749349	74934.8	20
0	750223	75022.2	174
0	750925	75092.4	28
0	752253	75225.2	67
0	753119	75311.8	1
0	753669	75366.8	24
0	756049	75604.8	75
0	759861	75986	179
0	761035	76103.4	86
0	763553	76355.2	99
0	763891	76389	156
0	764307	76430.6	12
0	765311	76531	3
0	765939	76593.8	221
0	766067	76606.6	3
0	766329	76632.8	95
0	767035	76703.4	281
0	767545	76754.4	93
0	769299	76929.8	129
0	770715	77071.4	76
0	771305	77130.4	115
0	771591	77159	91
0	774835	77483.4	90
0	775387	77538.6	14
0	775861	77586	145
0	776207	77620.6	235
0	778543	77854.2	172
0	779213	77921.2	10
0	779647	77964.6	53
0	780819	78081.8	134
0	781171	78117	208
0	781385	78138.4	1
0	782287	78228.6	339
0	782713	78271.2	129
0	784603	78460.2	115
0	785639	78563.8	23
0	786335	78633.4	134
0	787359	78735.8	291
0	787563	78756.2	25
0	788351	78835	401
0	788681	78868	1
0	788827	78882.6	30
0	788893	78889.2	24
0	790609	79060.8	33
0	792135	79213.4	288
0	794715	79471.4	30
0	796793	79679.2	368
0	797585	79758.4	3
0	799473	79947.2	115
0	800215	80021.4	182
0	800601	80060	46
0	801977	80197.6	194
0	802105	80210.4	1
0	802509	80250.8	61
0	805165	80516.4	22
0	807669	80766.8	20
0	808363	80836.2	3
0	809395	80939.4	11
0	809587	80958.6	27
0	809943	80994.2	102
0	810623	81062.2	137
0	811463	81146.2	51
0	812015	81201.4	51
0	813437	81343.6	80
0	813773	81377.2	164
0	815947	81594.6	116
0	816837	81683.6	1
0	818879	81887.8	5
0	819573	81957.2	91
0	819853	81985.2	3
0	820485	82048.4	192
0	821631	82163	61
0	823493	82349.2	37
0	826403	82640.2	23
0	826691	82669	12
0	827805	82780.4	257
0	828961	82896	116
0	829643	82964.2	49
0	830485	83048.4	5
0	833061	83306	73
0	833895	83389.4	587
0	834291	83429	237
0	835013	83501.2	567
0	835745	83574.4	109
0	836189	83618.8	10
0	840717	84071.6	80
0	841389	84138.8	11
0	841865	84186.4	146
0	842489	84248.8	149
0	842853	84285.2	231
0	846295	84629.4	92
0	846759	84675.8	230
0	847039	84703.8	57
0	849047	84904.6	297
0	849769	84976.8	274
0	850671	85067	17
0	854631	85463	420
0	854989	85498.8	36
0	857025	85702.4	39
0	857337	85733.6	242
0	857927	85792.6	310
0	861077	86107.6	7
0	861879	86187.8	16
0	862903	86290.2	10
0	863463	86346.2	25
0	865073	86507.2	167
0	866179	86617.8	240
0	868781	86878	96
0	871247	87124.6	142
0	872753	87275.2	127
0	873659	87365.8	67
0	874753	87475.2	314
0	876853	87685.2	133
0	878095	87809.4	45
0	878585	87858.4	74
0	878973	87897.2	21
0	879095	87909.4	109
0	879149	87914.8	8
0	880241	88024	105
0	881109	88110.8	68
0	881641	88164	194
0	881805	88180.4	107
0	883061	88306	45
0	883801	88380	183
0	884199	88419.8	8
0	887451	88745	54
0	888259	88825.8	5
0	890417	89041.6	12
0	891001	89100	3
0	891435	89143.4	162
0	893987	89398.6	341
0	894925	89492.4	2
0	896645	89664.4	9
0	902671	90267	144
0	903453	90345.2	60
0	903789	90378.8	66
0	906255	90625.4	323
0	906573	90657.2	24
0	909669	90966.8	36
0	913213	91321.2	116
0	916001	91600	3
0	916605	91660.4	496
0	916947	91694.6	30
0	918901	91890	16
0	920357	92035.6	14
0	920885	92088.4	135
0	921015	92101.4	60
0	924375	92437.4	156
0	924947	92494.6	115
0	925677	92567.6	123
0	928011	92801	46
0	931147	93114.6	63
0	931919	93191.8	5
0	932265	93226.4	44
0	932911	93291	30
0	934151	93415	162
0	935879	93587.8	8
0	938485	93848.4	54
0	940611	94061	135
0	941713	94171.2	192
0	944015	94401.4	71
0	949491	94949	92
0	952235	95223.4	11
0	953681	95368	336
0	958235	95823.4	246
0	958947	95894.6	203
0	959761	95976	67
0	960267	96026.6	5
0	961633	96163.2	556
0	963107	96310.6	10
0	965181	96518	19
0	965565	96556.4	17
0	965733	96573.2	134
0	965933	96593.2	42
0	967965	96796.4	50
0	968705	96870.4	221
0	969439	96943.8	238
0	970957	97095.6	15
0	973163	97316.2	57
0	973683	97368.2	141
0	977887	97788.6	89
0	980321	98032	41
0	980603	98060.2	191
0	982289	98228.8	81
0	983581	98358	115
0	988311	98831	72
0	990273	99027.2	9
0	990531	99053	72
0	992115	99211.4	231
0	992335	99233.4	202
0	992595	99259.4	13
0	993017	99301.6	216
0	993671	99367	11
0	995223	99522.2	4
0	995499	99549.8	69
0	996917	99691.6	19
0	997691	99769	64
0	998163	99816.2	14
0	998203	99820.2	14
0	999053	99905.2	147
0	1003003	100300.2	1
0	1004665	100466.4	71
0	1005977	100597.6	84
0	1006587	100658.6	125
0	1007933	100793.2	79
0	1010947	101094.6	1
0	1013491	101349	208
0	1017633	101763.2	222
0	1017969	101796.8	71
0	1018067	101806.6	77
0	1018125	101812.4	33
0	1018541	101854	301
0	1021133	102113.2	126
0	1021961	102196	129
0	1022583	102258.2	87
0	1022855	102285.4	230
0	1024301	102430	5
0	1025337	102533.6	71
0	1025597	102559.6	213
0	1026035	102603.4	7
0	1026621	102662	67
0	1026683	102668.2	51
0	1027825	102782.4	134
0	1029345	102934.4	126
0	1029415	102941.4	11
0	1031167	103116.6	94
0	1032543	103254.2	100
0	1033687	103368.6	217
0	1038555	103855.4	142
0	1038615	103861.4	44
0	1038733	103873.2	100
0	1040045	104004.4	13
0	1040425	104042.4	8
0	1045059	104505.8	544
0	1045525	104552.4	23
0	1046473	104647.2	15
0	1048295	104829.4	11
0	1049321	104932	6
0	1050087	105008.6	50
0	1051181	105118	98
0	1052173	105217.2	449
0	1053393	105339.2	33
0	1054937	105493.6	112
0	1057013	105701.2	239
0	1057281	105728	71
0	1057541	105754	201
0	1058915	105891.4	120
0	1060299	106029.8	329
0	1060425	106042.4	82
0	1061759	106175.8	418
0	1063829	106382.8	1
0	1063949	106394.8	70
0	1064845	106484.4	54
0	1065071	106507	99
0	1066075	106607.4	209
0	1066261	106626	5
0	1067679	106767.8	36
0	1068237	106823.6	205
0	1069661	106966	747
0	1069809	106980.8	136
0	1070843	107084.2	4
0	1074901	107490	12
0	1076661	107666	26
0	1077201	107720	69
0	1077871	107787	74
0	1080039	108003.8	82
0	1081153	108115.2	451
0	1081907	108190.6	80
0	1082145	108214.4	70
0	1083105	108310.4	408
0	1083713	108371.2	156
0	1088259	108825.8	45
0	1088983	108898.2	75
0	1089757	108975.6	47
0	1090733	109073.2	26
0	1092021	109202	12
0	1092259	109225.8	99
0	1092943	109294.2	371
0	1094153	109415.2	134
0	1094271	109427	9
0	1095039	109503.8	57
0	1095319	109531.8	179
0	1095991	109599	21
0	1096987	109698.6	121
0	1098383	109838.2	69
0	1098495	109849.4	84
0	1103565	110356.4	69
0	1104313	110431.2	161
0	1104733	110473.2	274
0	1105411	110541	11
0	1105887	110588.6	22
0	1106917	110691.6	22
0	1108453	110845.2	112
0	1108993	110899.2	221
0	1110869	111086.8	126
0	1112871	111287	364
0	1114461	111446	15
0	1115001	111500	99
0	1115955	111595.4	236
0	1116581	111658	183
0	1117455	111745.4	38
0	1117709	111770.8	19
0	1117755	111775.4	36
0	1120047	112004.6	163
0	1121083	112108.2	51
0	1123093	112309.2	164
0	1124083	112408.2	15
0	1125037	112503.6	18
0	1126023	112602.2	222
0	1126237	112623.6	41
0	1127361	112736	67
0	1128201	112820	813
0	1129261	112926	102
0	1129371	112937	5
0	1129853	112985.2	40
0	1130151	113015	72
0	1131987	113198.6	42
0	1132399	113239.8	65
0	1132677	113267.6	14
0	1133677	113367.6	1
0	1134205	113420.4	1
0	1134213	113421.2	6
0	1134759	113475.8	147
0	1136235	113623.4	31
0	1137731	113773	125
0	1138253	113825.2	480
0	1142147	114214.6	78
0	1143835	114383.4	45
0	1145957	114595.6	85
0	1147759	114775.8	131
0	1148607	114860.6	141
0	1150073	115007.2	405
0	1152659	115265.8	56
0	1152791	115279	1
0	1152963	115296.2	33
0	1156591	115659	407
0	1159313	115931.2	27
0	1160185	116018.4	19
0	1163035	116303.4	16
0	1163889	116388.8	116
0	1164667	116466.6	32
0	1165669	116566.8	8
0	1166757	116675.6	104
0	1169125	116912.4	41
0	1170523	117052.2	314
0	1171493	117149.2	25
0	1172363	117236.2	124
0	1172461	117246	38
0	1172815	117281.4	23
0	1174777	117477.6	348
0	1175819	117581.8	212
0	1176513	117651.2	97
0	1177267	117726.6	11
0	1178275	117827.4	162
0	1179949	117994.8	8
0	1180509	118050.8	1
0	1183069	118306.8	51
0	1183823	118382.2	301
0	1184063	118406.2	202
0	1184627	118462.6	86
0	1186185	118618.4	502
0	1188011	118801	6
0	1190941	119094	412
0	1193771	119377	22
0	1200941	120094	121
0	1202791	120279	99
0	1204875	120487.4	357
0	1205353	120535.2	341
0	1206643	120664.2	48
0	1206801	120680	88
0	1210459	121045.8	3
0	1212459	121245.8	141
0	1215385	121538.4	94
0	1216577	121657.6	352
0	1216649	121664.8	11
0	1217643	121764.2	44
0	1218165	121816.4	283
0	1219693	121969.2	60
0	1220067	122006.6	93
0	1223633	122363.2	1
0	1223975	122397.4	20
0	1224755	122475.4	58
0	1226945	122694.4	47
0	1228635	122863.4	73
0	1229409	122940.8	37
0	1230755	123075.4	154
0	1231155	123115.4	12
0	1233951	123395	1
0	1234373	123437.2	239
0	1234851	123485	165
0	1235815	123581.4	24
0	1240345	124034.4	202
0	1241437	124143.6	353
0	1241657	124165.6	26
0	1241841	124184	29
0	1242139	124213.8	44
0	1242327	124232.6	19
0	1242653	124265.2	56
0	1243669	124366.8	23
0	1244527	124452.6	120
0	1245483	124548.2	241
0	1247137	124713.6	913
0	1247863	124786.2	12
0	1249771	124977	72
0	1249849	124984.8	34
0	1250669	125066.8	419
0	1250863	125086.2	80
0	1252899	125289.8	112
0	1255213	125521.2	80
0	1257659	125765.8	66
0	1260659	126065.8	201
0	1260815	126081.4	33
0	1261627	126162.6	92
0	1262283	126228.2	316
0	1262951	126295	331
0	1265261	126526	407
0	1267265	126726.4	18
0	1270247	127024.6	7
0	1271183	127118.2	118
0	1272169	127216.8	85
0	1272947	127294.6	233
0	1273561	127356	201
0	1274061	127406	310
0	1278987	127898.6	185
0	1279651	127965	80
0	1280133	128013.2	1
0	1281697	128169.6	144
0	1282381	128238	114
0	1282925	128292.4	212
0	1284553	128455.2	55
0	1286451	128645	1
0	1286631	128663	137
0	1291259	129125.8	19
0	1292759	129275.8	54
0	1293073	129307.2	5
0	1296727	129672.6	1
0	1298365	129836.4	117
0	1299135	129913.4	125
0	1302765	130276.4	790
0	1305485	130548.4	526
0	1306359	130635.8	142
0	1307181	130718	197
0	1308449	130844.8	194
0	1309279	130927.8	551
0	1310367	131036.6	5
0	1310867	131086.6	64
0	1314299	131429.8	127
0	1314413	131441.2	71
0	1314689	131468.8	50
0	1315677	131567.6	388
0	1317121	131712	176
0	1317139	131713.8	17
0	1317651	131765	108
0	1318455	131845.4	102
0	1319211	131921	116
0	1320865	132086.4	99
0	1323049	132304.8	131
0	1323229	132322.8	77
0	1324257	132425.6	22
0	1324729	132472.8	210
0	1324819	132481.8	59
0	1329369	132936.8	135
0	1330251	133025	42
0	1330757	133075.6	61
0	1332099	133209.8	202
0	1333257	133325.6	48
0	1333487	133348.6	220
0	1334543	133454.2	326
0	1334699	133469.8	30
0	1336819	133681.8	193
0	1337175	133717.4	63
0	1337945	133794.4	128
0	1339275	133927.4	16
0	1339765	133976.4	77
0	1343299	134329.8	295
0	1344277	134427.6	99
0	1344601	134460	36
0	1347923	134792.2	5
0	1351525	135152.4	368
0	1351783	135178.2	27
0	1352305	135230.4	302
0	1353589	135358.8	22
0	1355757	135575.6	16
0	1356075	135607.4	76
0	1356165	135616.4	51
0	1356715	135671.4	70
0	1357743	135774.2	405
0	1358001	135800	69
0	1358391	135839	351
0	1360581	136058	226
0	1361345	136134.4	18
0	1362383	136238.2	256
0	1363183	136318.2	408
0	1363957	136395.6	38
0	1365105	136510.4	358
0	1365501	136550	32
0	1366509	136650.8	160
0	1366591	136659	11
0	1369829	136982.8	2
0	1371115	137111.4	276
0	1371285	137128.4	133
0	1373661	137366	41
0	1379807	137980.6	5
0	1381545	138154.4	47
0	1382349	138234.8	68
0	1386805	138680.4	99
0	1387687	138768.6	517
0	1388783	138878.2	177
0	1391815	139181.4	86
0	1393337	139333.6	7
0	1395199	139519.8	165
0	1397385	139738.4	60
0	1397517	139751.6	66
0	1398849	139884.8	18
0	1400759	140075.8	179
0	1400897	140089.6	23
0	1401721	140172	79
0	1405741	140574	7
0	1407879	140787.8	51
0	1408141	140814	15
0	1408643	140864.2	106
0	1409329	140932.8	207
0	1409741	140974	164
0	1410087	141008.6	43
0	1410461	141046	133
0	1411667	141166.6	305
0	1412005	141200.4	165
0	1416673	141667.2	39
0	1417117	141711.6	224
0	1418409	141840.8	47
0	1419929	141992.8	142
0	1426553	142655.2	113
0	1427465	142746.4	197
0	1428183	142818.2	35
0	1428965	142896.4	385
0	1431493	143149.2	49
0	1431531	143153	35
0	1432037	143203.6	135
0	1432795	143279.4	122
0	1433427	143342.6	52
0	1433931	143393	154
0	1434825	143482.4	94
0	1435049	143504.8	77
0	1437217	143721.6	195
0	1438575	143857.4	144
0	1439229	143922.8	116
0	1440867	144086.6	77
0	1442127	144212.6	27
0	1442667	144266.6	1
0	1443633	144363.2	47
0	1443985	144398.4	177
0	1444469	144446.8	111
0	1445481	144548	2
0	1445497	144549.6	7
0	1447269	144726.8	90
0	1449263	144926.2	102
0	1451427	145142.6	104
0	1451735	145173.4	233
0	1452625	145262.4	149
0	1455265	145526.4	201
0	1457037	145703.6	361
0	1458519	145851.8	18
0	1458689	145868.8	3
0	1459221	145922	280
0	1459763	145976.2	107
0	1460185	146018.4	349
0	1461917	146191.6	227
0	1466383	146638.2	8
0	1468713	146871.2	138
0	1470223	147022.2	138
0	1472273	147227.2	156
0	1473457	147345.6	52
0	1474931	147493	21
0	1476469	147646.8	5
0	1476547	147654.6	64
0	1476819	147681.8	103
0	1477805	147780.4	215
0	1479433	147943.2	46
0	1480071	148007	181
0	1482793	148279.2	118
0	1483077	148307.6	180
0	1483825	148382.4	4
0	1484013	148401.2	28
0	1487917	148791.6	3
0	1488255	148825.4	63
0	1491473	149147.2	48
0	1492085	149208.4	20
0	1493191	149319	236
0	1496283	149628.2	28
0	1497119	149711.8	41
0	1497351	149735	55
0	1498791	149879	4
0	1499337	149933.6	87
0	1500059	150005.8	31
0	1501827	150182.6	523
0	1501969	150196.8	78
0	1502189	150218.8	57
0	1502553	150255.2	316
0	1505757	150575.6	1
0	1505955	150595.4	48
0	1509303	150930.2	46
0	1510737	151073.6	106
0	1513319	151331.8	171
0	1514289	151428.8	43
0	1515449	151544.8	80
0	1516099	151609.8	3
0	1516843	151684.2	233
0	1519487	151948.6	74
0	1519713	151971.2	1
0	1520227	152022.6	98
0	1523789	152378.8	173
0	1524341	152434	4
0	1524511	152451	10
0	1526681	152668	177
0	1527233	152723.2	40
0	1527509	152750.8	47
0	1528199	152819.8	21
0	1528573	152857.2	24
0	1529077	152907.6	124
0	1530861	153086	36
0	1532507	153250.6	76
0	1533659	153365.8	37
0	1535691	153569	126
0	1536391	153639	64
0	1536591	153659	13
0	1537755	153775.4	73
0	1537963	153796.2	39
0	1538735	153873.4	26
0	1539573	153957.2	42
0	1541365	154136.4	29
0	1542247	154224.6	233
0	1544161	154416	54
0	1545961	154596	82
0	1546583	154658.2	43
0	1551485	155148.4	112
0	1552645	155264.4	363
0	1554449	155444.8	8
0	1555849	155584.8	342
0	1558787	155878.6	115
0	1560433	156043.2	283
0	1562329	156232.8	86
0	1566063	156606.2	126
0	1567275	156727.4	90
0	1569391	156939	248
0	1569931	156993	238
0	1569965	156996.4	24
0	1571949	157194.8	3
0	1572785	157278.4	277
0	1573021	157302	28
0	1574927	157492.6	16
0	1576649	157664.8	181
0	1576777	157677.6	4
0	1578615	157861.4	206
0	1579177	157917.6	33
0	1580725	158072.4	37
0	1580987	158098.6	122
0	1581215	158121.4	86
0	1582607	158260.6	187
0	1583171	158317	458
0	1583363	158336.2	30
0	1584487	158448.6	7
0	1586875	158687.4	132
0	1587467	158746.6	142
0	1587565	158756.4	81
0	1588601	158860	118
0	1590193	159019.2	41
0	1590795	159079.4	27
0	1591725	159172.4	92
0	1591787	159178.6	27
0	1592335	159233.4	69
0	1593387	159338.6	81
0	1595641	159564	23
0	1596587	159658.6	324
0	1596697	159669.6	46
0	1597637	159763.6	178
0	1597759	159775.8	91
0	1600283	160028.2	224
0	1602461	160246	47
0	1605149	160514.8	90
0	1605827	160582.6	412
0	1607347	160734.6	222
0	1607595	160759.4	72
0	1608125	160812.4	85
0	1608511	160851	43
0	1610559	161055.8	96
0	1611471	161147	9
0	1613559	161355.8	119
0	1613737	161373.6	168
0	1614181	161418	83
0	1615127	161512.6	101
0	1617273	161727.2	28
0	1617321	161732	25
0	1617359	161735.8	37
0	1618337	161833.6	56
0	1618929	161892.8	83
0	1619621	161962	110
0	1620237	162023.6	3
0	1620941	162094	37
0	1621583	162158.2	253
0	1621977	162197.6	104
0	1624131	162413	60
0	1624549	162454.8	60
0	1624555	162455.4	4
0	1624863	162486.2	109
0	1626041	162604	148
0	1630911	163091	139
0	1631967	163196.6	20
0	1633325	163332.4	8
0	1634957	163495.6	23