version 3
run General-123-20230611-05:41:42-416641
attr configname General
attr datetime 20230611-05:41:42
attr datetimef 20230611-054142
attr experiment General
attr inifile omnetpp.ini
attr iterationvars $N=94
attr iterationvarsd N=94
attr iterationvarsf N=94-
attr measurement $N=94
attr network LN
attr processid 416641
attr repetition 3
attr replication #3
attr resultdir results
attr runnumber 123
attr seedset 123
itervar N 94
config network LN
config sim-time-limit 250000s
config **.tic[*].hopCount.result-recording-modes +vector
config *.numCentralNodes 94
config repeat 4

vector 0 LN.lnd[14] hopCount:vector ETV
attr interpolationmode none
attr recordingmode vector
attr source arrival
attr title "hop count"
vector 1 LN.lnd[13] hopCount:vector ETV
attr interpolationmode none
attr recordingmode vector
attr source arrival
attr title "hop count"
vector 2 LN.lnd[17] hopCount:vector ETV
attr interpolationmode none
attr recordingmode vector
attr source arrival
attr title "hop count"
vector 3 LN.lnd[10] hopCount:vector ETV
attr interpolationmode none
attr recordingmode vector
attr source arrival
attr title "hop count"
vector 4 LN.lnd[16] hopCount:vector ETV
attr interpolationmode none
attr recordingmode vector
attr source arrival
attr title "hop count"
vector 5 LN.lnd[15] hopCount:vector ETV
attr interpolationmode none
attr recordingmode vector
attr source arrival
attr title "hop count"
vector 6 LN.lnd[8] hopCount:vector ETV
attr interpolationmode none
attr recordingmode vector
attr source arrival
attr title "hop count"
vector 7 LN.lnd[7] hopCount:vector ETV
attr interpolationmode none
attr recordingmode vector
attr source arrival
attr title "hop count"
vector 8 LN.lnd[19] hopCount:vector ETV
attr interpolationmode none
attr recordingmode vector
attr source arrival
attr title "hop count"
vector 9 LN.lnd[9] hopCount:vector ETV
attr interpolationmode none
attr recordingmode vector
attr source arrival
attr title "hop count"
vector 10 LN.lnd[11] hopCount:vector ETV
attr interpolationmode none
attr recordingmode vector
attr source arrival
attr title "hop count"
vector 11 LN.lnd[12] hopCount:vector ETV
attr interpolationmode none
attr recordingmode vector
attr source arrival
attr title "hop count"
vector 12 LN.lnd[5] hopCount:vector ETV
attr interpolationmode none
attr recordingmode vector
attr source arrival
attr title "hop count"
vector 13 LN.lnd[0] hopCount:vector ETV
attr interpolationmode none
attr recordingmode vector
attr source arrival
attr title "hop count"
vector 14 LN.lnd[4] hopCount:vector ETV
attr interpolationmode none
attr recordingmode vector
attr source arrival
attr title "hop count"
vector 15 LN.lnd[3] hopCount:vector ETV
attr interpolationmode none
attr recordingmode vector
attr source arrival
attr title "hop count"
vector 16 LN.lnd[2] hopCount:vector ETV
attr interpolationmode none
attr recordingmode vector
attr source arrival
attr title "hop count"
vector 17 LN.lnd[6] hopCount:vector ETV
attr interpolationmode none
attr recordingmode vector
attr source arrival
attr title "hop count"
vector 18 LN.lnd[18] hopCount:vector ETV
attr interpolationmode none
attr recordingmode vector
attr source arrival
attr title "hop count"
vector 19 LN.lnd[1] hopCount:vector ETV
attr interpolationmode none
attr recordingmode vector
attr source arrival
attr title "hop count"
0	153	15.2	152
0	341	34	60
0	3857	385.6	274
0	5589	558.8	37
0	6451	645	209
0	7045	704.4	7
0	7359	735.8	61
0	10475	1047.4	98
0	13247	1324.6	243
0	13355	1335.4	55
0	14905	1490.4	206
0	15439	1543.8	16
0	17343	1734.2	214
0	21693	2169.2	70
0	23567	2356.6	45
0	24055	2405.4	73
0	24509	2450.8	96
0	31291	3129	4
0	35241	3524	6
0	36893	3689.2	194
0	37439	3743.8	185
0	37541	3754	91
0	38145	3814.4	123
0	39011	3901	23
0	39741	3974	7
0	42795	4279.4	69
0	47067	4706.6	82
0	50239	5023.8	177
0	50691	5069	78
0	54151	5415	73
0	57483	5748.2	102
0	59597	5959.6	47
0	61299	6129.8	119
0	61815	6181.4	5
0	63927	6392.6	90
0	64221	6422	177
0	66315	6631.4	126
0	66847	6684.6	14
0	67569	6756.8	114
0	68271	6827	11
0	70111	7011	92
0	70555	7055.4	155
0	74421	7442	170
0	75531	7553	245
0	78885	7888.4	1
0	79009	7900.8	114
0	79205	7920.4	51
0	80617	8061.6	17
0	83283	8328.2	20
0	86919	8691.8	36
0	87927	8792.6	120
0	89599	8959.8	26
0	91741	9174	2
0	92197	9219.6	60
0	92485	9248.4	2
0	93933	9393.2	359
0	95141	9514	352
0	103105	10310.4	81
0	103709	10370.8	280
0	104367	10436.6	8
0	105035	10503.4	16
0	105863	10586.2	326
0	106755	10675.4	101
0	107019	10701.8	128
0	108359	10835.8	29
0	109211	10921	219
0	111235	11123.4	103
0	112069	11206.8	4
0	113697	11369.6	45
0	115691	11569	10
0	115923	11592.2	17
0	115941	11594	15
0	116475	11647.4	9
0	117711	11771	232
0	121299	12129.8	3
0	124585	12458.4	5
0	124881	12488	129
0	128405	12840.4	68
0	129289	12928.8	175
0	131699	13169.8	29
0	134579	13457.8	62
0	137833	13783.2	213
0	139505	13950.4	359
0	140035	14003.4	11
0	141709	14170.8	47
0	142495	14249.4	3
0	142861	14286	2
0	142943	14294.2	33
0	147855	14785.4	59
0	149737	14973.6	179
0	150203	15020.2	124
0	150967	15096.6	104
0	151683	15168.2	76
0	152559	15255.8	222
0	153911	15391	131
0	154443	15444.2	149
0	155375	15537.4	72
0	156541	15654	160
0	161095	16109.4	131
0	163043	16304.2	80
0	163381	16338	13
0	164185	16418.4	120
0	165485	16548.4	136
0	166457	16645.6	1
0	167145	16714.4	181
0	169947	16994.6	172
0	172645	17264.4	322
0	173995	17399.4	45
0	174969	17496.8	73
0	179157	17915.6	62
0	179549	17954.8	90
0	179597	17959.6	7
0	180149	18014.8	34
0	180451	18045	224
0	186909	18690.8	28
0	188401	18840	61
0	190001	19000	64
0	191705	19170.4	92
0	194035	19403.4	129
0	195587	19558.6	16
0	196133	19613.2	73
0	196601	19660	19
0	197875	19787.4	19
0	200449	20044.8	263
0	201461	20146	49
0	203497	20349.6	91
0	203637	20363.6	97
0	203995	20399.4	51
0	204725	20472.4	17
0	205911	20591	119
0	206405	20640.4	138
0	206585	20658.4	47
0	207553	20755.2	85
0	208509	20850.8	85
0	208851	20885	242
0	210533	21053.2	76
0	212433	21243.2	287
0	213067	21306.6	61
0	215683	21568.2	33
0	217539	21753.8	12
0	219081	21908	42
0	220773	22077.2	479
0	221133	22113.2	273
0	221559	22155.8	130
0	221697	22169.6	125
0	223323	22332.2	129
0	224551	22455	70
0	225551	22555	65
0	226337	22633.6	94
0	230837	23083.6	242
0	231155	23115.4	44
0	231541	23154	30
0	232053	23205.2	35
0	233299	23329.8	126
0	234863	23486.2	23
0	237103	23710.2	80
0	238189	23818.8	357
0	238915	23891.4	92
0	240649	24064.8	275
0	242165	24216.4	46
0	242363	24236.2	185
0	243985	24398.4	138
0	246285	24628.4	116
0	246921	24692	25
0	248657	24865.6	213
0	248795	24879.4	100
0	250019	25001.8	13
0	250319	25031.8	107
0	251103	25110.2	169
0	251401	25140	258
0	251581	25158	83
0	252245	25224.4	110
0	252851	25285	335
0	259655	25965.4	355
0	264087	26408.6	63
0	264615	26461.4	22
0	267051	26705	167
0	269147	26914.6	16
0	269549	26954.8	39
0	270385	27038.4	45
0	270993	27099.2	56
0	272755	27275.4	38
0	275071	27507	280
0	277307	27730.6	75
0	277643	27764.2	126
0	279841	27984	437
0	281749	28174.8	96
0	282703	28270.2	116
0	283517	28351.6	322
0	285187	28518.6	72
0	286547	28654.6	8
0	286783	28678.2	58
0	287765	28776.4	3
0	287951	28795	126
0	288517	28851.6	3
0	289513	28951.2	73
0	292133	29213.2	624
0	296663	29666.2	51
0	299785	29978.4	152
0	299909	29990.8	96
0	301587	30158.6	168
0	301843	30184.2	44
0	302405	30240.4	75
0	302533	30253.2	102
0	303099	30309.8	18
0	305289	30528.8	89
0	307813	30781.2	13
0	307921	30792	41
0	308437	30843.6	88
0	309987	30998.6	174
0	311133	31113.2	15
0	311461	31146	147
0	312313	31231.2	51
0	312985	31298.4	161
0	313289	31328.8	34
0	313983	31398.2	19
0	314479	31447.8	65
0	316651	31665	293
0	317463	31746.2	15
0	318569	31856.8	12
0	321245	32124.4	148
0	322799	32279.8	38
0	323083	32308.2	73
0	326005	32600.4	61
0	329235	32923.4	33
0	330189	33018.8	20
0	331693	33169.2	4
0	337099	33709.8	61
0	338221	33822	118
0	340287	34028.6	204
0	340581	34058	41
0	340935	34093.4	34
0	346115	34611.4	181
0	346559	34655.8	96
0	348299	34829.8	66
0	348633	34863.2	4
0	350611	35061	28
0	355463	35546.2	208
0	357127	35712.6	116
0	357931	35793	65
0	358287	35828.6	287
0	362267	36226.6	8
0	362413	36241.2	95
0	363465	36346.4	69
0	364107	36410.6	89
0	366869	36686.8	6
0	368893	36889.2	429
0	372287	37228.6	168
0	374275	37427.4	186
0	375667	37566.6	65
0	380119	38011.8	55
0	380841	38084	13
0	381341	38134	20
0	382425	38242.4	146
0	383061	38306	51
0	384725	38472.4	300
0	386381	38638	4
0	386619	38661.8	101
0	387565	38756.4	79
0	392623	39262.2	248
0	394531	39453	58
0	395073	39507.2	52
0	396923	39692.2	84
0	397933	39793.2	160
0	400899	40089.8	13
0	401453	40145.2	108
0	402645	40264.4	136
0	403339	40333.8	63
0	404309	40430.8	410
0	410121	41012	43
0	410461	41046	25
0	413545	41354.4	24
0	413817	41381.6	21
0	414119	41411.8	99
0	415783	41578.2	68
0	419365	41936.4	272
0	420799	42079.8	222
0	422697	42269.6	66
0	423033	42303.2	134
0	424395	42439.4	241
0	427979	42797.8	358
0	428235	42823.4	177
0	428333	42833.2	3
0	429681	42968	82
0	430513	43051.2	185
0	431707	43170.6	133
0	438541	43854	21
0	439351	43935	19
0	440341	44034	47
0	442493	44249.2	115
0	442847	44284.6	84
0	442983	44298.2	11
0	445003	44500.2	91
0	445897	44589.6	23
0	448249	44824.8	12
0	450433	45043.2	65
0	453671	45367	3
0	454387	45438.6	93
0	455417	45541.6	179
0	456349	45634.8	47
0	456967	45696.6	63
0	460153	46015.2	242
0	461343	46134.2	53
0	464747	46474.6	60
0	465743	46574.2	66
0	466667	46666.6	109
0	470967	47096.6	86
0	471447	47144.6	16
0	472153	47215.2	117
0	474115	47411.4	63
0	474315	47431.4	164
0	476239	47623.8	175
0	476495	47649.4	3
0	477979	47797.8	130
0	478243	47824.2	120
0	480473	48047.2	58
0	483037	48303.6	73
0	483319	48331.8	12
0	484767	48476.6	111
0	486001	48600	101
0	488955	48895.4	104
0	489321	48932	1
0	490059	49005.8	52
0	490881	49088	88
0	492501	49250	256
0	492919	49291.8	145
0	493267	49326.6	5
0	494507	49450.6	4
0	496501	49650	147
0	496581	49658	45
0	497907	49790.6	140
0	499065	49906.4	76
0	499479	49947.8	109
0	500693	50069.2	16
0	503527	50352.6	457
0	504885	50488.4	1
0	506039	50603.8	156
0	506733	50673.2	28
0	509393	50939.2	3
0	509565	50956.4	92
0	510025	51002.4	38
0	511999	51199.8	216
0	514535	51453.4	75
0	515027	51502.6	127
0	518389	51838.8	39
0	518467	51846.6	26
0	518917	51891.6	13
0	520373	52037.2	17
0	520753	52075.2	144
0	522089	52208.8	60
0	525109	52510.8	274
0	525889	52588.8	92
0	528441	52844	54
0	529833	52983.2	103
0	531265	53126.4	173
0	534133	53413.2	154
0	534509	53450.8	72
0	536167	53616.6	8
0	537605	53760.4	1
0	537699	53769.8	26
0	538261	53826	106
0	538765	53876.4	10
0	541623	54162.2	15
0	542171	54217	177
0	543519	54351.8	18
0	546259	54625.8	83
0	550905	55090.4	162
0	552545	55254.4	62
0	553667	55366.6	93
0	554687	55468.6	30
0	556835	55683.4	13
0	560695	56069.4	49
0	562245	56224.4	220
0	562947	56294.6	115
0	563567	56356.6	154
0	563635	56363.4	62
0	565389	56538.8	44
0	565531	56553	131
0	567141	56714	238
0	571765	57176.4	291
0	572059	57205.8	110
0	572519	57251.8	190
0	572883	57288.2	10
0	573905	57390.4	40
0	575087	57508.6	16
0	576265	57626.4	44
0	577435	57743.4	97
0	577843	57784.2	304
0	584579	58457.8	21
0	587957	58795.6	385
0	588713	58871.2	58
0	590375	59037.4	25
0	590839	59083.8	49
0	591181	59118	11
0	591359	59135.8	68
0	592137	59213.6	51
0	593035	59303.4	31
0	594573	59457.2	70
0	595847	59584.6	32
0	595863	59586.2	6
0	596929	59692.8	50
0	597833	59783.2	50
0	599193	59919.2	29
0	599841	59984	348
0	603333	60333.2	274
0	604103	60410.2	384
0	604233	60423.2	51
0	604279	60427.8	29
0	604799	60479.8	5
0	604953	60495.2	149
0	605747	60574.6	37
0	606977	60697.6	6
0	608247	60824.6	31
0	609731	60973	287
0	610345	61034.4	290
0	610471	61047	42
0	611505	61150.4	48
0	611643	61164.2	108
0	612943	61294.2	80
0	614293	61429.2	137
0	615041	61504	109
0	617479	61747.8	68
0	618187	61818.6	138
0	618763	61876.2	553
0	621595	62159.4	175
0	623981	62398	86
0	625673	62567.2	25
0	626817	62681.6	162
0	629035	62903.4	195
0	631781	63178	33
0	633107	63310.6	57
0	633625	63362.4	29
0	633985	63398.4	236
0	635241	63524	218
0	635703	63570.2	27
0	637175	63717.4	30
0	643591	64359	49
0	643765	64376.4	53
0	646219	64621.8	20
0	648395	64839.4	245
0	649897	64989.6	40
0	651811	65181	103
0	652567	65256.6	123
0	654523	65452.2	5
0	654627	65462.6	90
0	655335	65533.4	33
0	656469	65646.8	130
0	656837	65683.6	15
0	657947	65794.6	539
0	658755	65875.4	3
0	660063	66006.2	281
0	660203	66020.2	69
0	662699	66269.8	144
0	663045	66304.4	170
0	663299	66329.8	67
0	669019	66901.8	31
0	669643	66964.2	42
0	671215	67121.4	21
0	673591	67359	62
0	674251	67425	137
0	675185	67518.4	610
0	675779	67577.8	72
0	676527	67652.6	24
0	679725	67972.4	190
0	680477	68047.6	46
0	682211	68221	226
0	684195	68419.4	182
0	684879	68487.8	136
0	685465	68546.4	22
0	685857	68585.6	200
0	690799	69079.8	38
0	692371	69237	62
0	693159	69315.8	91
0	693793	69379.2	38
0	693919	69391.8	38
0	694723	69472.2	36
0	696901	69690	161
0	698791	69879	48
0	698929	69892.8	37
0	701315	70131.4	58
0	703633	70363.2	25
0	705865	70586.4	37
0	706775	70677.4	76
0	707139	70713.8	32
0	710599	71059.8	136
0	710639	71063.8	31
0	712163	71216.2	19
0	713577	71357.6	899
0	716327	71632.6	31
0	717687	71768.6	66
0	718543	71854.2	32
0	718845	71884.4	282
0	719539	71953.8	178
0	721883	72188.2	223
0	722451	72245	186
0	722783	72278.2	95
0	725413	72541.2	392
0	725833	72583.2	50
0	726985	72698.4	30
0	727273	72727.2	65
0	728441	72844	150
0	729189	72918.8	464
0	730949	73094.8	295
0	731465	73146.4	85
0	732465	73246.4	39
0	733003	73300.2	69
0	734165	73416.4	24
0	735323	73532.2	166
0	735841	73584	133
0	737665	73766.4	46
0	737995	73799.4	1
0	739807	73980.6	65
0	741845	74184.4	55
0	742595	74259.4	36
0	743373	74337.2	36
0	745635	74563.4	8
0	746095	74609.4	383
0	746357	74635.6	1
0	746867	74686.6	293
0	748623	74862.2	193
0	750619	75061.8	37
0	751223	75122.2	38
0	751699	75169.8	152
0	753063	75306.2	224
0	753361	75336	15
0	753635	75363.4	15
0	755371	75537	220
0	758453	75845.2	11
0	759129	75912.8	339
0	759737	75973.6	63
0	759963	75996.2	25
0	761075	76107.4	41
0	761505	76150.4	120
0	762213	76221.2	244
0	762525	76252.4	38
0	765301	76530	372
0	766089	76608.8	9
0	766257	76625.6	99
0	766737	76673.6	291
0	767217	76721.6	79
0	767949	76794.8	3
0	768389	76838.8	91
0	771723	77172.2	19
0	773235	77323.4	1
0	774347	77434.6	81
0	779473	77947.2	45
0	779637	77963.6	1
0	780121	78012	138
0	780527	78052.6	189
0	781395	78139.4	25
0	783069	78306.8	56
0	783251	78325	167
0	784107	78410.6	89
0	787583	78758.2	133
0	787713	78771.2	67
0	788601	78860	25
0	789729	78972.8	26
0	791867	79186.6	328
0	793085	79308.4	9
0	793351	79335	149
0	793587	79358.6	130
0	795905	79590.4	9
0	797963	79796.2	74
0	802127	80212.6	269
0	803877	80387.6	29
0	803953	80395.2	3
0	804711	80471	61
0	804807	80480.6	70
0	805253	80525.2	50
0	805519	80551.8	111
0	806015	80601.4	33
0	806645	80664.4	27
0	807205	80720.4	137
0	813967	81396.6	45
0	814043	81404.2	13
0	815581	81558	100
0	817497	81749.6	281
0	817767	81776.6	11
0	819423	81942.2	71
0	823985	82398.4	174
0	824547	82454.6	1
0	825205	82520.4	153
0	827917	82791.6	380
0	828783	82878.2	27
0	829899	82989.8	40
0	834845	83484.4	217
0	835279	83527.8	28
0	836759	83675.8	44
0	839365	83936.4	195
0	839857	83985.6	194
0	842345	84234.4	12
0	842853	84285.2	29
0	843369	84336.8	506
0	843515	84351.4	26
0	849223	84922.2	201
0	850859	85085.8	205
0	851931	85193	1
0	852045	85204.4	32
0	854741	85474	28
0	855133	85513.2	152
0	855629	85562.8	2
0	855891	85589	31
0	856345	85634.4	46
0	863951	86395	43
0	864147	86414.6	12
0	864981	86498	153
0	866667	86666.6	199
0	867445	86744.4	164
0	867789	86778.8	32
0	869987	86998.6	3
0	873233	87323.2	153
0	874539	87453.8	114
0	874859	87485.8	34
0	874927	87492.6	53
0	876483	87648.2	101
0	877571	87757	255
0	878351	87835	286
0	878823	87882.2	16
0	879671	87967	34
0	880911	88091	92
0	881723	88172.2	30
0	882205	88220.4	228
0	882451	88245	200
0	882977	88297.6	37
0	886625	88662.4	37
0	887009	88700.8	101
0	887143	88714.2	96
0	887789	88778.8	142
0	889109	88910.8	146
0	890615	89061.4	34
0	891191	89119	101
0	891657	89165.6	53
0	893439	89343.8	1
0	893577	89357.6	35
0	894027	89402.6	1
0	894503	89450.2	42
0	896325	89632.4	250
0	896951	89695	168
0	897277	89727.6	9
0	899335	89933.4	74
0	900007	90000.6	35
0	901773	90177.2	77
0	903355	90335.4	26
0	903985	90398.4	106
0	904517	90451.6	33
0	906959	90695.8	65
0	911363	91136.2	72
0	912141	91214	197
0	913801	91380	21
0	915233	91523.2	18
0	915929	91592.8	44
0	916923	91692.2	60
0	919189	91918.8	236
0	920249	92024.8	440
0	922047	92204.6	126
0	923045	92304.4	4
0	923613	92361.2	35
0	926521	92652	67
0	929493	92949.2	97
0	929669	92966.8	82
0	929829	92982.8	20
0	929929	92992.8	1
0	933599	93359.8	157
0	934119	93411.8	36
0	934283	93428.2	33
0	936465	93646.4	27
0	937619	93761.8	29
0	937801	93780	30
0	939151	93915	98
0	939815	93981.4	268
0	942321	94232	5
0	943545	94354.4	80
0	945585	94558.4	23
0	945861	94586	9
0	946097	94609.6	232
0	946745	94674.4	22
0	947227	94722.6	1
0	947305	94730.4	4
0	947689	94768.8	42
0	949381	94938	85
0	950627	95062.6	8
0	955749	95574.8	1
0	960163	96016.2	305
0	960729	96072.8	174
0	961503	96150.2	15
0	962611	96261	223
0	965469	96546.8	93
0	967653	96765.2	353
0	968483	96848.2	263
0	972203	97220.2	44
0	973157	97315.6	87
0	974829	97482.8	69
0	978221	97822	14
0	979103	97910.2	374
0	980467	98046.6	37
0	982907	98290.6	103
0	983341	98334	5
0	983553	98355.2	101
0	984497	98449.6	88
0	985871	98587	64
0	986783	98678.2	58
0	990433	99043.2	45
0	990681	99068	61
0	991725	99172.4	360
0	993031	99303	241
0	994083	99408.2	7
0	994965	99496.4	19
0	995825	99582.4	3
0	996903	99690.2	12
0	1000655	100065.4	1
0	1002227	100222.6	25
0	1005421	100542	1
0	1005667	100566.6	1
0	1005777	100577.6	38
0	1009743	100974.2	3
0	1011493	101149.2	281
0	1013145	101314.4	62
0	1017495	101749.4	26
0	1018559	101855.8	1
0	1019485	101948.4	25
0	1020053	102005.2	163
0	1020383	102038.2	68
0	1021579	102157.8	135
0	1021661	102166	76
0	1021907	102190.6	129
0	1024415	102441.4	107
0	1024509	102450.8	21
0	1026351	102635	176
0	1026877	102687.6	94
0	1027545	102754.4	74
0	1028187	102818.6	7
0	1030235	103023.4	75
0	1030429	103042.8	35
0	1030705	103070.4	145
0	1033445	103344.4	5
0	1035029	103502.8	53
0	1035391	103539	88
0	1035511	103551	16
0	1036357	103635.6	75
0	1037997	103799.6	8
0	1039557	103955.6	192
0	1039887	103988.6	7
0	1040547	104054.6	97
0	1044917	104491.6	218
0	1045015	104501.4	49
0	1046119	104611.8	7
0	1047057	104705.6	133
0	1047299	104729.8	8
0	1048169	104816.8	48
0	1049167	104916.6	122
0	1050205	105020.4	64
0	1051667	105166.6	160
0	1052097	105209.6	19
0	1052381	105238	21
0	1052871	105287	53
0	1056117	105611.6	341
0	1057457	105745.6	37
0	1057529	105752.8	17
0	1058781	105878	130
0	1059475	105947.4	245
0	1059953	105995.2	100
0	1060965	106096.4	15
0	1062623	106262.2	161
0	1063253	106325.2	133
0	1063265	106326.4	7
0	1067937	106793.6	116
0	1069191	106919	316
0	1073291	107329	69
0	1074501	107450	127
0	1077291	107729	223
0	1077755	107775.4	39
0	1077879	107787.8	45
0	1078673	107867.2	36
0	1079241	107924	12
0	1080183	108018.2	285
0	1082621	108262	138
0	1083593	108359.2	106
0	1085851	108585	37
0	1085923	108592.2	43
0	1087065	108706.4	514
0	1087271	108727	171
0	1089311	108931	29
0	1090801	109080	61
0	1091849	109184.8	102
0	1093725	109372.4	1
0	1096705	109670.4	40
0	1097933	109793.2	4
0	1098107	109810.6	118
0	1099005	109900.4	76
0	1099267	109926.6	50
0	1099353	109935.2	37
0	1100213	110021.2	321
0	1102131	110213	58
0	1103287	110328.6	212
0	1103567	110356.6	1
0	1104879	110487.8	155
0	1105181	110518	177
0	1105671	110567	260
0	1107383	110738.2	23
0	1107579	110757.8	13
0	1115051	111505	206
0	1115319	111531.8	33
0	1116413	111641.2	41
0	1120323	112032.2	99
0	1124431	112443	92
0	1124629	112462.8	73
0	1126893	112689.2	124
0	1129731	112973	69
0	1132759	113275.8	59
0	1133697	113369.6	22
0	1134181	113418	83
0	1135265	113526.4	178
0	1138013	113801.2	129
0	1142547	114254.6	187
0	1143667	114366.6	174
0	1145249	114524.8	60
0	1147315	114731.4	43
0	1147521	114752	57
0	1149103	114910.2	36
0	1152109	115210.8	135
0	1153563	115356.2	122
0	1155857	115585.6	133
0	1156561	115656	11
0	1156937	115693.6	48
0	1158803	115880.2	71
0	1159237	115923.6	80
0	1160041	116004	91
0	1161119	116111.8	245
0	1163663	116366.2	127
0	1165211	116521	258
0	1165825	116582.4	8
0	1166849	116684.8	161
0	1167343	116734.2	94
0	1168553	116855.2	27
0	1172555	117255.4	118
0	1173129	117312.8	44
0	1174775	117477.4	275
0	1175387	117538.6	288
0	1176505	117650.4	74
0	1177369	117736.8	73
0	1178793	117879.2	153
0	1179855	117985.4	34
0	1180173	118017.2	110
0	1181789	118178.8	141
0	1183741	118374	83
0	1186599	118659.8	108
0	1187615	118761.4	43
0	1188065	118806.4	71
0	1190757	119075.6	46
0	1192017	119201.6	25
0	1193461	119346	68
0	1197405	119740.4	98
0	1197595	119759.4	39
0	1197751	119775	105
0	1198219	119821.8	38
0	1199533	119953.2	69
0	1201629	120162.8	146
0	1201907	120190.6	26
0	1203451	120345	87
0	1204263	120426.2	278
0	1204805	120480.4	150
0	1205551	120555	27
0	1205941	120594	37
0	1206511	120651	28
0	1206753	120675.2	124
0	1206985	120698.4	226
0	1207231	120723	99
0	1207785	120778.4	5
0	1208567	120856.6	32
0	1208703	120870.2	134
0	1214763	121476.2	109
0	1216353	121635.2	151
0	1217401	121740	97
0	1220583	122058.2	165
0	1220643	122064.2	10
0	1221779	122177.8	149
0	1222021	122202	192
0	1223599	122359.8	227
0	1224967	122496.6	78
0	1225893	122589.2	28
0	1226753	122675.2	23
0	1227759	122775.8	197
0	1227957	122795.6	81
0	1228587	122858.6	97
0	1229161	122916	284
0	1229641	122964	69
0	1230523	123052.2	178
0	1231223	123122.2	59
0	1231439	123143.8	193
0	1232373	123237.2	61
0	1235803	123580.2	45
0	1236597	123659.6	9
0	1239507	123950.6	194
0	1241725	124172.4	79
0	1245175	124517.4	82
0	1245869	124586.8	55
0	1246241	124624	127
0	1246363	124636.2	1
0	1247505	124750.4	36
0	1248523	124852.2	81
0	1248663	124866.2	25
0	1248783	124878.2	57
0	1252021	125202	1
0	1252781	125278	32
0	1253399	125339.8	239
0	1253545	125354.4	19
0	1255763	125576.2	51
0	1256721	125672	7
0	1258153	125815.2	440
0	1259391	125939	108
0	1261373	126137.2	31
0	1263581	126358	1
0	1263917	126391.6	175
0	1266151	126615	45
0	1266671	126667	152
0	1267269	126726.8	223
0	1267509	126750.8	37
0	1270093	127009.2	215
0	1272647	127264.6	72
0	1273519	127351.8	80
0	1273875	127387.4	120
0	1274695	127469.4	68
0	1275041	127504	107
0	1276917	127691.6	547
0	1278041	127804	64
0	1278583	127858.2	13
0	1279467	127946.6	68
0	1281371	128137	49
0	1285745	128574.4	1
0	1286285	128628.4	30
0	1288189	128818.8	70
0	1289357	128935.6	5
0	1289793	128979.2	75
0	1293201	129320	234
0	1294077	129407.6	251
0	1296919	129691.8	101
0	1298991	129899	104
0	1299875	129987.4	13
0	1302221	130222	46
0	1302861	130286	141
0	1302889	130288.8	8
0	1304227	130422.6	11
0	1304379	130437.8	1
0	1305223	130522.2	142
0	1307323	130732.2	4
0	1312585	131258.4	43
0	1313515	131351.4	105
0	1313905	131390.4	54
0	1313939	131393.8	13
0	1316523	131652.2	140
0	1320041	132004	129
0	1320283	132028.2	86
0	1320435	132043.4	82
0	1321411	132141	91
0	1323467	132346.6	94
0	1325903	132590.2	28
0	1328905	132890.4	145
0	1331817	133181.6	17
0	1332455	133245.4	16
0	1332563	133256.2	62
0	1332825	133282.4	136
0	1333631	133363	126
0	1335281	133528	106
0	1336179	133617.8	1
0	1336459	133645.8	23
0	1337433	133743.2	9
0	1338367	133836.6	5
0	1338833	133883.2	65
0	1339523	133952.2	40
0	1340897	134089.6	13
0	1341145	134114.4	182
0	1342141	134214	290
0	1345511	134551	316
0	1347273	134727.2	12
0	1349023	134902.2	140
0	1349329	134932.8	35
0	1350805	135080.4	34
0	1350893	135089.2	9
0	1353421	135342	73
0	1353929	135392.8	8
0	1354419	135441.8	37
0	1356715	135671.4	99
0	1358661	135866	109
0	1359943	135994.2	116
0	1363439	136343.8	258
0	1364729	136472.8	39
0	1365053	136505.2	187
0	1367261	136726	170
0	1367469	136746.8	13
0	1367591	136759	31
0	1367823	136782.2	50
0	1370215	137021.4	21
0	1371115	137111.4	182
0	1371277	137127.6	76
0	1373351	137335	78
0	1375419	137541.8	1
0	1375743	137574.2	166
0	1376363	137636.2	101
0	1376855	137685.4	73
0	1379615	137961.4	120
0	1382081	138208	14
0	1382177	138217.6	70
0	1382599	138259.8	34
0	1383207	138320.6	191
0	1383961	138396	18
0	1384879	138487.8	12
0	1386205	138620.4	34
0	1387273	138727.2	28
0	1387927	138792.6	200
0	1388291	138829	11
0	1389187	138918.6	58
0	1389279	138927.8	54
0	1389387	138938.6	11
0	1391251	139125	44
0	1391623	139162.2	20
0	1393591	139359	32
0	1394683	139468.2	92
0	1395027	139502.6	1
0	1396367	139636.6	18
0	1397445	139744.4	142
0	1398343	139834.2	116
0	1399165	139916.4	94
0	1400159	140015.8	33
0	1402209	140220.8	6
0	1408159	140815.8	248
0	1408273	140827.2	5
0	1410077	141007.6	93
0	1411065	141106.4	22
0	1412565	141256.4	244
0	1413849	141384.8	70
0	1415985	141598.4	74
0	1417363	141736.2	106
0	1418877	141887.6	157
0	1419911	141991	192
0	1421453	142145.2	20
0	1423159	142315.8	497
0	1424007	142400.6	40
0	1424089	142408.8	57
0	1426295	142629.4	1
0	1426997	142699.6	314
0	1427933	142793.2	71
0	1428863	142886.2	30
0	1431585	143158.4	20
0	1432225	143222.4	187
0	1433131	143313	274
0	1435849	143584.8	377
0	1440445	144044.4	202
0	1440537	144053.6	54
0	1441261	144126	124
0	1447447	144744.6	20
0	1448015	144801.4	100
0	1448111	144811	88
0	1450045	145004.4	8
0	1451579	145157.8	212
0	1454637	145463.6	107
0	1455405	145540.4	16
0	1455679	145567.8	265
0	1457163	145716.2	214
0	1457511	145751	33
0	1458607	145860.6	205
0	1460643	146064.2	24
0	1462185	146218.4	94
0	1462809	146280.8	214
0	1464365	146436.4	99
0	1466735	146673.4	142
0	1467223	146722.2	69
0	1467529	146752.8	175
0	1468695	146869.4	150
0	1468973	146897.2	13
0	1469375	146937.4	39
0	1471215	147121.4	95
0	1472473	147247.2	46
0	1472989	147298.8	28
0	1473291	147329	88
0	1473535	147353.4	33
0	1476695	147669.4	13
0	1477431	147743	45
0	1480155	148015.4	209
0	1481439	148143.8	22
0	1484045	148404.4	274
0	1484101	148410	6
0	1484849	148484.8	437
0	1485349	148534.8	5
0	1487139	148713.8	30
0	1487521	148752	10
0	1488669	148866.8	4
0	1489885	148988.4	29
0	1492237	149223.6	168
0	1495045	149504.4	312
0	1496613	149661.2	66
0	1497547	149754.6	120
0	1499313	149931.2	53
0	1502149	150214.8	226
0	1502435	150243.4	201
0	1505141	150514	77
0	1511989	151198.8	33
0	1514223	151422.2	243
0	1515907	151590.6	21
0	1519539	151953.8	63
0	1519803	151980.2	88
0	1521991	152199	14
0	1523211	152321	239
0	1525753	152575.2	14
0	1525837	152583.6	64
0	1525903	152590.2	35
0	1528277	152827.6	363
0	1530201	153020	33
0	1531669	153166.8	229
0	1532391	153239	13
0	1533263	153326.2	468
0	1533799	153379.8	118
0	1534457	153445.6	21
0	1541801	154180	25
0	1542341	154234	379
0	1543339	154333.8	56
0	1545447	154544.6	78
0	1545611	154561	129
0	1546233	154623.2	200
0	1546583	154658.2	85
0	1548907	154890.6	25
0	1549871	154987	176
0	1549951	154995	14
0	1550243	155024.2	125
0	1550855	155085.4	52
0	1553523	155352.2	32
0	1554209	155420.8	497
0	1554723	155472.2	370
0	1555275	155527.4	152
0	1555491	155549	46
0	1559701	155970	153
0	1563047	156304.6	58
0	1564873	156487.2	78
0	1565443	156544.2	162
0	1569351	156935	111
0	1571339	157133.8	207
0	1571763	157176.2	97
0	1574207	157420.6	67
0	1574617	157461.6	182
0	1576247	157624.6	209
0	1577721	157772	75
0	1578687	157868.6	15
0	1579263	157926.2	160
0	1583711	158371	22
0	1584457	158445.6	70
0	1585557	158555.6	92
0	1586379	158637.8	3
0	1587613	158761.2	117
0	1589247	158924.6	19
0	1589805	158980.4	21
0	1589859	158985.8	51
0	1590153	159015.2	98
0	1590907	159090.6	54
0	1591745	159174.4	5
0	1592595	159259.4	243
0	1594427	159442.6	30
0	1595211	159521	170
0	1595917	159591.6	10
0	1597997	159799.6	298
0	1598421	159842	79
0	1600119	160011.8	29
0	1601561	160156	16
0	1603589	160358.8	55
0	1604405	160440.4	133
0	1609779	160977.8	273
0	1611381	161138	41
0	1612005	161200.4	339
0	1621519	162151.8	152
0	1622431	162243	17
0	1623063	162306.2	335
0	1624123	162412.2	241
0	1625831	162583	78
0	1628931	162893	46
0	1630385	163038.4	298
0	1630853	163085.2	90
0	1635929	163592.8	9
0	1637089	163708.8	184
0	1637835	163783.4	3
0	1639397	163939.6	165
0	1640277	164027.6	24
0	1640341	164034	58
0	1641953	164195.2	36
0	1642765	164276.4	69
0	1643313	164331.2	19
0	1644779	164477.8	133
0	1645699	164569.8	61
0	1648239	164823.8	39
0	1651013	165101.2	37
0	1654415	165441.4	59
0	1655017	165501.6	155
0	1655835	165583.4	155
0	1656623	165662.2	30
0	1657997	165799.6	129
0	1661375	166137.4	66
0	1662501	166250	1
0	1663445	166344.4	58
0	1664257	166425.6	61
0	1664665	166466.4	3
0	1665625	166562.4	128
0	1665899	166589.8	85
0	1666449	166644.8	40
0	1673309	167330.8	61
0	1677783	167778.2	56
0	1678959	167895.8	79
0	1678961	167896	1
0	1681553	168155.2	26
0	1686451	168645	32
0	1686711	168671	85
0	1689739	168973.8	224
0	1693581	169358	34
0	1696497	169649.6	20
0	1698129	169812.8	147
0	1699315	169931.4	135
0	1699733	169973.2	126
0	1701169	170116.8	354
0	1702933	170293.2	73
0	1703409	170340.8	147
0	1704679	170467.8	203
0	1706271	170627	43
0	1707003	170700.2	142
0	1707351	170735	237
0	1709309	170930.8	66
0	1709737	170973.6	76
0	1710103	171010.2	322
0	1712275	171227.4	53
0	1713795	171379.4	82
0	1714103	171410.2	16
0	1717797	171779.6	306
0	1720479	172047.8	104
0	1720995	172099.4	63
0	1721037	172103.6	27
0	1721655	172165.4	71
0	1723297	172329.6	25
0	1723853	172385.2	50
0	1725427	172542.6	241
0	1725711	172571	225
0	1727039	172703.8	96
0	1728495	172849.4	32
0	1730223	173022.2	87
0	1732387	173238.6	283
0	1732509	173250.8	79
0	1734537	173453.6	23
0	1735377	173537.6	1
0	1737579	173757.8	66
0	1737839	173783.8	50
0	1739193	173919.2	155
0	1742311	174231	65
0	1745579	174557.8	84
0	1745957	174595.6	121
0	1748901	174890	42
0	1751751	175175	231
0	1752359	175235.8	18
0	1752527	175252.6	71
0	1757467	175746.6	525
0	1758621	175862	52
0	1758783	175878.2	41
0	1759259	175925.8	109
0	1759923	175992.2	73
0	1760679	176067.8	1
0	1760847	176084.6	17
0	1762549	176254.8	59
0	1762977	176297.6	70
0	1763089	176308.8	46
0	1765335	176533.4	1
0	1765975	176597.4	85
0	1767951	176795	58
0	1768739	176873.8	67
0	1771559	177155.8	63
0	1772009	177200.8	70
0	1772799	177279.8	315
0	1775373	177537.2	79
0	1776645	177664.4	53
0	1777485	177748.4	26
0	1778077	177807.6	237
0	1781321	178132	14
0	1782359	178235.8	211
0	1782915	178291.4	14
0	1783973	178397.2	74
0	1785155	178515.4	5
0	1786271	178627	47
0	1789299	178929.8	40
0	1790571	179057	11
0	1792771	179277	127
0	1793669	179366.8	163
0	1794063	179406.2	23
0	1795339	179533.8	127
0	1795551	179555	162
0	1795979	179597.8	46
0	1796641	179664	251
0	1797177	179717.6	237