version 3
run General-116-20230611-05:41:40-416636
attr configname General
attr datetime 20230611-05:41:40
attr datetimef 20230611-054140
attr experiment General
attr inifile omnetpp.ini
attr iterationvars $N=91
attr iterationvarsd N=91
attr iterationvarsf N=91-
attr measurement $N=91
attr network LN
attr processid 416636
attr repetition 0
attr replication #0
attr resultdir results
attr runnumber 116
attr seedset 116
itervar N 91
config network LN
config sim-time-limit 250000s
config **.tic[*].hopCount.result-recording-modes +vector
config *.numCentralNodes 91
config repeat 4

vector 0 LN.lnd[18] hopCount:vector ETV
attr interpolationmode none
attr recordingmode vector
attr source arrival
attr title "hop count"
vector 1 LN.lnd[3] hopCount:vector ETV
attr interpolationmode none
attr recordingmode vector
attr source arrival
attr title "hop count"
vector 2 LN.lnd[12] hopCount:vector ETV
attr interpolationmode none
attr recordingmode vector
attr source arrival
attr title "hop count"
vector 3 LN.lnd[17] hopCount:vector ETV
attr interpolationmode none
attr recordingmode vector
attr source arrival
attr title "hop count"
vector 4 LN.lnd[13] hopCount:vector ETV
attr interpolationmode none
attr recordingmode vector
attr source arrival
attr title "hop count"
vector 5 LN.lnd[10] hopCount:vector ETV
attr interpolationmode none
attr recordingmode vector
attr source arrival
attr title "hop count"
vector 6 LN.lnd[7] hopCount:vector ETV
attr interpolationmode none
attr recordingmode vector
attr source arrival
attr title "hop count"
vector 7 LN.lnd[9] hopCount:vector ETV
attr interpolationmode none
attr recordingmode vector
attr source arrival
attr title "hop count"
vector 8 LN.lnd[19] hopCount:vector ETV
attr interpolationmode none
attr recordingmode vector
attr source arrival
attr title "hop count"
vector 9 LN.lnd[6] hopCount:vector ETV
attr interpolationmode none
attr recordingmode vector
attr source arrival
attr title "hop count"
vector 10 LN.lnd[1] hopCount:vector ETV
attr interpolationmode none
attr recordingmode vector
attr source arrival
attr title "hop count"
vector 11 LN.lnd[4] hopCount:vector ETV
attr interpolationmode none
attr recordingmode vector
attr source arrival
attr title "hop count"
vector 12 LN.lnd[15] hopCount:vector ETV
attr interpolationmode none
attr recordingmode vector
attr source arrival
attr title "hop count"
vector 13 LN.lnd[16] hopCount:vector ETV
attr interpolationmode none
attr recordingmode vector
attr source arrival
attr title "hop count"
vector 14 LN.lnd[0] hopCount:vector ETV
attr interpolationmode none
attr recordingmode vector
attr source arrival
attr title "hop count"
vector 15 LN.lnd[8] hopCount:vector ETV
attr interpolationmode none
attr recordingmode vector
attr source arrival
attr title "hop count"
vector 16 LN.lnd[2] hopCount:vector ETV
attr interpolationmode none
attr recordingmode vector
attr source arrival
attr title "hop count"
vector 17 LN.lnd[11] hopCount:vector ETV
attr interpolationmode none
attr recordingmode vector
attr source arrival
attr title "hop count"
vector 18 LN.lnd[5] hopCount:vector ETV
attr interpolationmode none
attr recordingmode vector
attr source arrival
attr title "hop count"
vector 19 LN.lnd[14] hopCount:vector ETV
attr interpolationmode none
attr recordingmode vector
attr source arrival
attr title "hop count"
0	35	3.4	34
0	409	40.8	17
0	695	69.4	21
0	5601	560	44
0	5753	575.2	52
0	6971	697	21
0	7349	734.8	5
0	8541	854	6
0	9015	901.4	166
0	9911	991	33
0	9963	996.2	8
0	10569	1056.8	44
0	11347	1134.6	40
0	13915	1391.4	24
0	14183	1418.2	60
0	14897	1489.6	63
0	16313	1631.2	81
0	17171	1717	45
0	18391	1839	161
0	18705	1870.4	63
0	19041	1904	122
0	20001	2000	201
0	20975	2097.4	5
0	21115	2111.4	110
0	24187	2418.6	3
0	26777	2677.6	58
0	27591	2759	32
0	29559	2955.8	16
0	30001	3000	14
0	31245	3124.4	63
0	34581	3458	25
0	34837	3483.6	237
0	35229	3522.8	40
0	35999	3599.8	65
0	36857	3685.6	34
0	37143	3714.2	3
0	38871	3887	67
0	40093	4009.2	45
0	42795	4279.4	68
0	44623	4462.2	80
0	45139	4513.8	39
0	48233	4823.2	13
0	49543	4954.2	17
0	50375	5037.4	34
0	53401	5340	67
0	54063	5406.2	230
0	54999	5499.8	12
0	56257	5625.6	23
0	56465	5646.4	51
0	56583	5658.2	31
0	60053	6005.2	79
0	60923	6092.2	34
0	61485	6148.4	20
0	62633	6263.2	51
0	63205	6320.4	169
0	63391	6339	54
0	65841	6584	55
0	65915	6591.4	23
0	66383	6638.2	14
0	67553	6755.2	79
0	69043	6904.2	28
0	69807	6980.6	13
0	69847	6984.6	9
0	71115	7111.4	47
0	71355	7135.4	51
0	73395	7339.4	69
0	73851	7385	139
0	74103	7410.2	10
0	74157	7415.6	18
0	75101	7510	234
0	75561	7556	25
0	78713	7871.2	10
0	79883	7988.2	6
0	81017	8101.6	165
0	81499	8149.8	62
0	83179	8317.8	75
0	87955	8795.4	42
0	89817	8981.6	175
0	90159	9015.8	13
0	91213	9121.2	95
0	92047	9204.6	15
0	92771	9277	6
0	94719	9471.8	73
0	95515	9551.4	59
0	100265	10026.4	10
0	100763	10076.2	44
0	104237	10423.6	7
0	106369	10636.8	51
0	109515	10951.4	70
0	111271	11127	30
0	111471	11147	29
0	113221	11322	22
0	113561	11356	51
0	113603	11360.2	32
0	115297	11529.6	25
0	115433	11543.2	84
0	116215	11621.4	65
0	119227	11922.6	29
0	120207	12020.6	15
0	121587	12158.6	66
0	122087	12208.6	81
0	122253	12225.2	63
0	123149	12314.8	105
0	125991	12599	63
0	127909	12790.8	5
0	131143	13114.2	87
0	131365	13136.4	15
0	132473	13247.2	27
0	132485	13248.4	1
0	134177	13417.6	20
0	137063	13706.2	54
0	138229	13822.8	30
0	138471	13847	17
0	138565	13856.4	7
0	145265	14526.4	26
0	145995	14599.4	86
0	149631	14963	34
0	152867	15286.6	56
0	153431	15343	11
0	156529	15652.8	126
0	161327	16132.6	7
0	164257	16425.6	206
0	164659	16465.8	20
0	164869	16486.8	24
0	166525	16652.4	11
0	167031	16703	28
0	167475	16747.4	10
0	167667	16766.6	12
0	168589	16858.8	69
0	170173	17017.2	108
0	170269	17026.8	32
0	172353	17235.2	10
0	173685	17368.4	23
0	174685	17468.4	47
0	177243	17724.2	75
0	178053	17805.2	50
0	178231	17823	57
0	179531	17953	13
0	180317	18031.6	14
0	182291	18229	90
0	183267	18326.6	5
0	184403	18440.2	51
0	185605	18560.4	26
0	188093	18809.2	149
0	188893	18889.2	37
0	189025	18902.4	11
0	189171	18917	4
0	190681	19068	73
0	190953	19095.2	18
0	192153	19215.2	35
0	192539	19253.8	152
0	193075	19307.4	104
0	194203	19420.2	62
0	194941	19494	18
0	194965	19496.4	21
0	194995	19499.4	13
0	195207	19520.6	122
0	196393	19639.2	39
0	196587	19658.6	36
0	198451	19845	30
0	198545	19854.4	39
0	198841	19884	5
0	201125	20112.4	43
0	202213	20221.2	5
0	202653	20265.2	285
0	202781	20278	83
0	204921	20492	17
0	206639	20663.8	45
0	207029	20702.8	22
0	207857	20785.6	60
0	207977	20797.6	23
0	209731	20973	9
0	215607	21560.6	36
0	216233	21623.2	90
0	217133	21713.2	22
0	218105	21810.4	98
0	218827	21882.6	49
0	220255	22025.4	26
0	220389	22038.8	31
0	222689	22268.8	269
0	223415	22341.4	37
0	225531	22553	69
0	226185	22618.4	133
0	226973	22697.2	135
0	228285	22828.4	34
0	231075	23107.4	31
0	232459	23245.8	52
0	233765	23376.4	45
0	237827	23782.6	64
0	239075	23907.4	6
0	240007	24000.6	16
0	240441	24044	129
0	242193	24219.2	100
0	244153	24415.2	41
0	244489	24448.8	22
0	244615	24461.4	20
0	249063	24906.2	69
0	249485	24948.4	77
0	250315	25031.4	4
0	251577	25157.6	95
0	251867	25186.6	27
0	254829	25482.8	18
0	255301	25530	99
0	257527	25752.6	155
0	257999	25799.8	63
0	258053	25805.2	17
0	258171	25817	41
0	261167	26116.6	40
0	262581	26258	104
0	266637	26663.6	68
0	266849	26684.8	49
0	268947	26894.6	153
0	269861	26986	1
0	270547	27054.6	78
0	271667	27166.6	197
0	272373	27237.2	15
0	273213	27321.2	77
0	273429	27342.8	8
0	273853	27385.2	123
0	274031	27403	3
0	274883	27488.2	131
0	275417	27541.6	32
0	275567	27556.6	106
0	276443	27644.2	22
0	276853	27685.2	89
0	277765	27776.4	3
0	279219	27921.8	13
0	279431	27943	38
0	282167	28216.6	11
0	282731	28273	12
0	284337	28433.6	44
0	284677	28467.6	7
0	286185	28618.4	3
0	287473	28747.2	111
0	287839	28783.8	6
0	290647	29064.6	43
0	291753	29175.2	13
0	292459	29245.8	157
0	292799	29279.8	4
0	293703	29370.2	47
0	295727	29572.6	34
0	296195	29619.4	33
0	299129	29912.8	47
0	299353	29935.2	108
0	299781	29978	1
0	301507	30150.6	10
0	301675	30167.4	32
0	302103	30210.2	57
0	303999	30399.8	27
0	306671	30667	99
0	306973	30697.2	21
0	308917	30891.6	9
0	310879	31087.8	45
0	311003	31100.2	3
0	312211	31221	123
0	313491	31349	16
0	315461	31546	45
0	318233	31823.2	102
0	321015	32101.4	25
0	322347	32234.6	51
0	322479	32247.8	116
0	324489	32448.8	39
0	324729	32472.8	7
0	326517	32651.6	26
0	327281	32728	2
0	327525	32752.4	9
0	328159	32815.8	18
0	331845	33184.4	10
0	332253	33225.2	172
0	333431	33343	124
0	333465	33346.4	14
0	333919	33391.8	1
0	335411	33541	11
0	335427	33542.6	15
0	335913	33591.2	10
0	336517	33651.6	187
0	337565	33756.4	7
0	338139	33813.8	51
0	345017	34501.6	128
0	347241	34724	36
0	347947	34794.6	10
0	351679	35167.8	247
0	351853	35185.2	29
0	355857	35585.6	3
0	359829	35982.8	79
0	361929	36192.8	32
0	362345	36234.4	17
0	362535	36253.4	9
0	363129	36312.8	4
0	365285	36528.4	86
0	365351	36535	33
0	366223	36622.2	277
0	367057	36705.6	127
0	368839	36883.8	16
0	370101	37010	15
0	371503	37150.2	86
0	371783	37178.2	80
0	372215	37221.4	19
0	374975	37497.4	77
0	376415	37641.4	90
0	377269	37726.8	9
0	377415	37741.4	79
0	379353	37935.2	48
0	380113	38011.2	34
0	384619	38461.8	17
0	384877	38487.6	1
0	386275	38627.4	32
0	391535	39153.4	207
0	392353	39235.2	7
0	393043	39304.2	47
0	393471	39347	67
0	396407	39640.6	29
0	396607	39660.6	9
0	397511	39751	205
0	397685	39768.4	64
0	400585	40058.4	22
0	402393	40239.2	59
0	403681	40368	37
0	404121	40412	2
0	404437	40443.6	49
0	405081	40508	9
0	406037	40603.6	2
0	410751	41075	75
0	411209	41120.8	208
0	412531	41253	45
0	414663	41466.2	55
0	414887	41488.6	39
0	415785	41578.4	64
0	417273	41727.2	1
0	418725	41872.4	35
0	421555	42155.4	13
0	421957	42195.6	141
0	422149	42214.8	160
0	423337	42333.6	135
0	423487	42348.6	46
0	426733	42673.2	72
0	427589	42758.8	9
0	427849	42784.8	22
0	428245	42824.4	124
0	429857	42985.6	8
0	431505	43150.4	78
0	434873	43487.2	10
0	436565	43656.4	20
0	438875	43887.4	58
0	439031	43903	19
0	443537	44353.6	55
0	444649	44464.8	92
0	444775	44477.4	8
0	445085	44508.4	26
0	447799	44779.8	137
0	450337	45033.6	41
0	452359	45235.8	24
0	454987	45498.6	12
0	455199	45519.8	75
0	458227	45822.6	15
0	458701	45870	78
0	459451	45945	168
0	459863	45986.2	96
0	462155	46215.4	259
0	462441	46244	144
0	466059	46605.8	85
0	466907	46690.6	23
0	467703	46770.2	44
0	470665	47066.4	8
0	471139	47113.8	128
0	471199	47119.8	24
0	471567	47156.6	180
0	473953	47395.2	156
0	474539	47453.8	136
0	474943	47494.2	2
0	475819	47581.8	65
0	475841	47584	21
0	477387	47738.6	110
0	478731	47873	55
0	478907	47890.6	43
0	479135	47913.4	107
0	480863	48086.2	135
0	483769	48376.8	44
0	484231	48423	112
0	484943	48494.2	90
0	485069	48506.8	16
0	485929	48592.8	10
0	487377	48737.6	50
0	488519	48851.8	64
0	488573	48857.2	24
0	489835	48983.4	59
0	494503	49450.2	13
0	494853	49485.2	41
0	496527	49652.6	34
0	496609	49660.8	19
0	497373	49737.2	38
0	498401	49840	1
0	498485	49848.4	34
0	499437	49943.6	1
0	499697	49969.6	124
0	502481	50248	25
0	503581	50358	30
0	505547	50554.6	13
0	506113	50611.2	24
0	507401	50740	159
0	507437	50743.6	25
0	508869	50886.8	12
0	509955	50995.4	19
0	512627	51262.6	37
0	514389	51438.8	42
0	515137	51513.6	21
0	518081	51808	2
0	518151	51815	17
0	518409	51840.8	59
0	519387	51938.6	2
0	519873	51987.2	41
0	520287	52028.6	83
0	520747	52074.6	64
0	522721	52272	23
0	524023	52402.2	220
0	526651	52665	207
0	532395	53239.4	8
0	536333	53633.2	50
0	540299	54029.8	35
0	542895	54289.4	52
0	548501	54850	8
0	548681	54868	9
0	549817	54981.6	81
0	551035	55103.4	19
0	551107	55110.6	29
0	552513	55251.2	17
0	552919	55291.8	66
0	554359	55435.8	100
0	554453	55445.2	39
0	554773	55477.2	47
0	557923	55792.2	43
0	559493	55949.2	130
0	561303	56130.2	11
0	562979	56297.8	47
0	563331	56333	52
0	564865	56486.4	48
0	566079	56607.8	37
0	566557	56655.6	21
0	567229	56722.8	79
0	568115	56811.4	29
0	569631	56963	26
0	570399	57039.8	4
0	570545	57054.4	65
0	570693	57069.2	73
0	572155	57215.4	2
0	573847	57384.6	35
0	574175	57417.4	3
0	574713	57471.2	71
0	578587	57858.6	10
0	582683	58268.2	69
0	585907	58590.6	17
0	585993	58599.2	3
0	589645	58964.4	1
0	591681	59168	23
0	592035	59203.4	16
0	592911	59291	18
0	593695	59369.4	214
0	594805	59480.4	108
0	597573	59757.2	164
0	599225	59922.4	64
0	599337	59933.6	20
0	600585	60058.4	12
0	602487	60248.6	82
0	604305	60430.4	61
0	606169	60616.8	12
0	608757	60875.6	44
0	609197	60919.6	55
0	610247	61024.6	12
0	611209	61120.8	140
0	611767	61176.6	1
0	611895	61189.4	81
0	611989	61198.8	89
0	612309	61230.8	19
0	613875	61387.4	41
0	614001	61400	95
0	614433	61443.2	83
0	614525	61452.4	67
0	615241	61524	14
0	617869	61786.8	9
0	618291	61829	4
0	619001	61900	202
0	620449	62044.8	61
0	624179	62417.8	8
0	624453	62445.2	92
0	624491	62449	28
0	624965	62496.4	12
0	625803	62580.2	116
0	626469	62646.8	20
0	627861	62786	105
0	630377	63037.6	49
0	630889	63088.8	14
0	631041	63104	117
0	637441	63744	92
0	641051	64105	46
0	642931	64293	4
0	643353	64335.2	25
0	643911	64391	18
0	645065	64506.4	51
0	645573	64557.2	19
0	646155	64615.4	184
0	647585	64758.4	79
0	648717	64871.6	2
0	649881	64988	95
0	650577	65057.6	33
0	650597	65059.6	8
0	654129	65412.8	181
0	655029	65502.8	15
0	656031	65603	8
0	656265	65626.4	111
0	657969	65796.8	57
0	660187	66018.6	75
0	660487	66048.6	191
0	660959	66095.8	41
0	661847	66184.6	24
0	662253	66225.2	32
0	662797	66279.6	11
0	669321	66932	18
0	669833	66983.2	29
0	670865	67086.4	23
0	671271	67127	51
0	674797	67479.6	6
0	675661	67566	328
0	677315	67731.4	72
0	677657	67765.6	10
0	681971	68197	41
0	682283	68228.2	69
0	683611	68361	17
0	685793	68579.2	68
0	686259	68625.8	13
0	689147	68914.6	15
0	689753	68975.2	17
0	692011	69201	57
0	692785	69278.4	24
0	694073	69407.2	56
0	694127	69412.6	28
0	694405	69440.4	99
0	694553	69455.2	46
0	695367	69536.6	13
0	695421	69542	31
0	695935	69593.4	226
0	696219	69621.8	2
0	697685	69768.4	51
0	701249	70124.8	3
0	702075	70207.4	14
0	702485	70248.4	34
0	704387	70438.6	57
0	705391	70539	8
0	705587	70558.6	94
0	706563	70656.2	61
0	710567	71056.6	36
0	710949	71094.8	190
0	712241	71224	37
0	716971	71697	3
0	719115	71911.4	11
0	720759	72075.8	2
0	721343	72134.2	12
0	721927	72192.6	149
0	722129	72212.8	45
0	722549	72254.8	36
0	725469	72546.8	13
0	725597	72559.6	98
0	725843	72584.2	65
0	727443	72744.2	5
0	728365	72836.4	34
0	728651	72865	27
0	730035	73003.4	98
0	730489	73048.8	93
0	732241	73224	26
0	732913	73291.2	38
0	733105	73310.4	70
0	733707	73370.6	14
0	734721	73472	5
0	735407	73540.6	112
0	736279	73627.8	60
0	737629	73762.8	46
0	737913	73791.2	2
0	738683	73868.2	113
0	743173	74317.2	8
0	743189	74318.8	2
0	744193	74419.2	33
0	744411	74441	113
0	744919	74491.8	40
0	744997	74499.6	6
0	746169	74616.8	74
0	746581	74658	103
0	747763	74776.2	166
0	747877	74787.6	10
0	750071	75007	26
0	752225	75222.4	11
0	753135	75313.4	82
0	753823	75382.2	126
0	755407	75540.6	21
0	755769	75576.8	10
0	757215	75721.4	114
0	759713	75971.2	39
0	760049	76004.8	27
0	761689	76168.8	68
0	762455	76245.4	2
0	762457	76245.6	1
0	764953	76495.2	233
0	765565	76556.4	3
0	766897	76689.6	87
0	767433	76743.2	40
0	772375	77237.4	44
0	772921	77292	36
0	774329	77432.8	2
0	774453	77445.2	26
0	775599	77559.8	66
0	778287	77828.6	112
0	779501	77950	32
0	779843	77984.2	141
0	783207	78320.6	21
0	786161	78616	169
0	787713	78771.2	58
0	788407	78840.6	157
0	788485	78848.4	26
0	790713	79071.2	13
0	790899	79089.8	105
0	792911	79291	11
0	793379	79337.8	39
0	794471	79447	19
0	794863	79486.2	3
0	796855	79685.4	53
0	800695	80069.4	38
0	801565	80156.4	70
0	801651	80165	7
0	801869	80186.8	21
0	802307	80230.6	28
0	802903	80290.2	76
0	807023	80702.2	148
0	808877	80887.6	23
0	810705	81070.4	7
0	812483	81248.2	130
0	815203	81520.2	26
0	815791	81579	37
0	816537	81653.6	7
0	818523	81852.2	1
0	819457	81945.6	16
0	820065	82006.4	136
0	820269	82026.8	123
0	821063	82106.2	33
0	822019	82201.8	15
0	822553	82255.2	221
0	825763	82576.2	91
0	827071	82707	36
0	828059	82805.8	82
0	828911	82891	41
0	832459	83245.8	70
0	832579	83257.8	46
0	834539	83453.8	41
0	834583	83458.2	14
0	835699	83569.8	5
0	836297	83629.6	44
0	836841	83684	26
0	839659	83965.8	49
0	839881	83988	75
0	840375	84037.4	28
0	841445	84144.4	120
0	843421	84342	270
0	844469	84446.8	7
0	844679	84467.8	11
0	846719	84671.8	32
0	848417	84841.6	61
0	848457	84845.6	37
0	848489	84848.8	23
0	849237	84923.6	141
0	849737	84973.6	11
0	849781	84978	30
0	849921	84992	37
0	850183	85018.2	193
0	851503	85150.2	19
0	852475	85247.4	39
0	854981	85498	74
0	855085	85508.4	40
0	855817	85581.6	21
0	856151	85615	51
0	856323	85632.2	169
0	856521	85652	88
0	858453	85845.2	104
0	860289	86028.8	164
0	861669	86166.8	120
0	861783	86178.2	21
0	861843	86184.2	22
0	863903	86390.2	45
0	865291	86529	40
0	866875	86687.4	160
0	867897	86789.6	137
0	869801	86980	28
0	870843	87084.2	152
0	871351	87135	43
0	872275	87227.4	93
0	873297	87329.6	146
0	874073	87407.2	24
0	875007	87500.6	23
0	877795	87779.4	104
0	880489	88048.8	53
0	880983	88098.2	21
0	881165	88116.4	78
0	885699	88569.8	33
0	886177	88617.6	39
0	886703	88670.2	105
0	886945	88694.4	134
0	888839	88883.8	4
0	893143	89314.2	51
0	894097	89409.6	32
0	895431	89543	68
0	895859	89585.8	54
0	898799	89879.8	190
0	901375	90137.4	73
0	901699	90169.8	21
0	906363	90636.2	4
0	907819	90781.8	13
0	909509	90950.8	28
0	909897	90989.6	240
0	910565	91056.4	83
0	912385	91238.4	298
0	913495	91349.4	51
0	914671	91467	38
0	915025	91502.4	27
0	918401	91840	7
0	922783	92278.2	6
0	922797	92279.6	3
0	925823	92582.2	12
0	928677	92867.6	195
0	930127	93012.6	58
0	930583	93058.2	45
0	932453	93245.2	29
0	932871	93287	53
0	934405	93440.4	21
0	937815	93781.4	95
0	938813	93881.2	68
0	939045	93904.4	80
0	940179	94017.8	17
0	940535	94053.4	14
0	943887	94388.6	8
0	944811	94481	165
0	947297	94729.6	29
0	948609	94860.8	73
0	949535	94953.4	9
0	950963	95096.2	71
0	951157	95115.6	15
0	951875	95187.4	1
0	951921	95192	38
0	952877	95287.6	124
0	956459	95645.8	69
0	959637	95963.6	17
0	959825	95982.4	20
0	961543	96154.2	30
0	963401	96340	2
0	965031	96503	20
0	965529	96552.8	174
0	969459	96945.8	3
0	969863	96986.2	275
0	970163	97016.2	71
0	970217	97021.6	40
0	973433	97343.2	7
0	973649	97364.8	91
0	973993	97399.2	163
0	974097	97409.6	51
0	975433	97543.2	53
0	976755	97675.4	111
0	976869	97686.8	3
0	977893	97789.2	119
0	979437	97943.6	40
0	979949	97994.8	25
0	980193	98019.2	96
0	980465	98046.4	113
0	981301	98130	97
0	981803	98180.2	104
0	981983	98198.2	22
0	982155	98215.4	29
0	984593	98459.2	63
0	987241	98724	18
0	987439	98743.8	19
0	989211	98921	29
0	989315	98931.4	13
0	989829	98982.8	15
0	993541	99354	12
0	996413	99641.2	19
0	996627	99662.6	47
0	999237	99923.6	29
0	1000129	100012.8	228
0	1000499	100049.8	18
0	1001089	100108.8	127
0	1001637	100163.6	47
0	1001873	100187.2	29
0	1003329	100332.8	81
0	1006829	100682.8	163
0	1007985	100798.4	36
0	1008635	100863.4	103
0	1008891	100889	27
0	1009001	100900	53
0	1012593	101259.2	6
0	1012869	101286.8	5
0	1013711	101371	44
0	1015765	101576.4	86
0	1016769	101676.8	26
0	1017135	101713.4	105
0	1021883	102188.2	118
0	1022997	102299.6	61
0	1023439	102343.8	84
0	1023905	102390.4	10
0	1024747	102474.6	26
0	1025613	102561.2	87
0	1026119	102611.8	64
0	1028689	102868.8	73
0	1030949	103094.8	16
0	1032357	103235.6	131
0	1033217	103321.6	161
0	1035185	103518.4	28
0	1037799	103779.8	105
0	1038501	103850	8
0	1038503	103850.2	1
0	1038931	103893	5
0	1040027	104002.6	157
0	1040595	104059.4	88
0	1042927	104292.6	10
0	1047221	104722	94
0	1051485	105148.4	42
0	1053263	105326.2	120
0	1054399	105439.8	1
0	1055195	105519.4	260
0	1056259	105625.8	83
0	1056353	105635.2	63
0	1060517	106051.6	26
0	1060731	106073	19
0	1061289	106128.8	8
0	1064525	106452.4	67
0	1065731	106573	21
0	1065915	106591.4	57
0	1066275	106627.4	9
0	1069375	106937.4	158
0	1070471	107047	66
0	1071177	107117.6	19
0	1071297	107129.6	21
0	1072009	107200.8	38
0	1072899	107289.8	244
0	1074619	107461.8	166
0	1076735	107673.4	31
0	1077421	107742	116
0	1082947	108294.6	222
0	1083975	108397.4	67
0	1084041	108404	9
0	1086643	108664.2	109
0	1089591	108959	97
0	1092601	109260	11
0	1093183	109318.2	31
0	1093809	109380.8	96
0	1095899	109589.8	126
0	1097409	109740.8	89
0	1098133	109813.2	140
0	1098997	109899.6	26
0	1099781	109978	264
0	1101361	110136	18
0	1101543	110154.2	10
0	1103865	110386.4	118
0	1104169	110416.8	91
0	1104667	110466.6	70
0	1105247	110524.6	21
0	1106999	110699.8	8
0	1108949	110894.8	84
0	1109221	110922	73
0	1111001	111100	61
0	1111635	111163.4	75
0	1112057	111205.6	25
0	1112919	111291.8	7
0	1113011	111301	3
0	1115285	111528.4	120
0	1120411	112041	45
0	1121507	112150.6	5
0	1123705	112370.4	132
0	1128599	112859.8	14
0	1128795	112879.4	15
0	1129103	112910.2	16
0	1131761	113176	20
0	1132067	113206.6	29
0	1134593	113459.2	53
0	1135891	113589	76
0	1136029	113602.8	3
0	1136621	113662	40
0	1137817	113781.6	1
0	1138753	113875.2	58
0	1142087	114208.6	114
0	1143043	114304.2	251
0	1143799	114379.8	262
0	1146939	114693.8	4
0	1147617	114761.6	68
0	1148167	114816.6	33
0	1149281	114928	102
0	1150501	115050	59
0	1154491	115449	56
0	1156219	115621.8	6
0	1156313	115631.2	29
0	1158203	115820.2	38
0	1158437	115843.6	178
0	1158523	115852.2	41
0	1158573	115857.2	33
0	1158983	115898.2	3
0	1159463	115946.2	91
0	1163855	116385.4	136
0	1164487	116448.6	36
0	1166981	116698	69
0	1167973	116797.2	2
0	1168759	116875.8	48
0	1169191	116919	80
0	1169769	116976.8	43
0	1170577	117057.6	19
0	1171415	117141.4	13
0	1174305	117430.4	164
0	1174699	117469.8	29
0	1175573	117557.2	19
0	1176605	117660.4	28
0	1177697	117769.6	57
0	1178219	117821.8	14
0	1179753	117975.2	101
0	1179943	117994.2	11
0	1183715	118371.4	133
0	1186299	118629.8	12
0	1188247	118824.6	21
0	1189101	118910	3
0	1189465	118946.4	78
0	1190143	119014.2	111
0	1190839	119083.8	84
0	1193171	119317	57
0	1195573	119557.2	60
0	1197901	119790	10
0	1200271	120027	21
0	1205709	120570.8	11
0	1206055	120605.4	29
0	1206179	120617.8	67
0	1206301	120630	44
0	1206337	120633.6	14
0	1206417	120641.6	40
0	1206801	120680	33
0	1209799	120979.8	16
0	1209905	120990.4	24
0	1211587	121158.6	203
0	1213291	121329	23
0	1213419	121341.8	34
0	1214179	121417.8	81
0	1214779	121477.8	132
0	1216075	121607.4	49
0	1216635	121663.4	9
0	1217113	121711.2	73
0	1217857	121785.6	21
0	1218341	121834	68
0	1218687	121868.6	15
0	1219625	121962.4	61
0	1219641	121964	15
0	1221493	122149.2	78
0	1223833	122383.2	15
0	1225095	122509.4	63
0	1226835	122683.4	145
0	1232365	123236.4	244
0	1232827	123282.6	122
0	1232949	123294.8	16
0	1233629	123362.8	25
0	1235047	123504.6	68
0	1235577	123557.6	111
0	1238453	123845.2	82
0	1238665	123866.4	25
0	1240739	124073.8	5
0	1240805	124080.4	52
0	1242321	124232	11
0	1244467	124446.6	35
0	1245197	124519.6	16
0	1245777	124577.6	33
0	1246679	124667.8	13
0	1246917	124691.6	4
0	1247831	124783	138
0	1247997	124799.6	84
0	1248483	124848.2	35
0	1248885	124888.4	8
0	1249981	124998	71
0	1251445	125144.4	99
0	1253853	125385.2	43
0	1254651	125465	129
0	1256671	125667	40
0	1257429	125742.8	68
0	1260251	126025	77
0	1260679	126067.8	13
0	1260759	126075.8	49
0	1262345	126234.4	112
0	1264173	126417.2	30
0	1266953	126695.2	145
0	1267589	126758.8	66
0	1269317	126931.6	21
0	1270135	127013.4	10
0	1271995	127199.4	85
0	1273555	127355.4	34
0	1273779	127377.8	79
0	1274641	127464	92
0	1274661	127466	2
0	1275733	127573.2	18
0	1276609	127660.8	45
0	1276935	127693.4	16
0	1279539	127953.8	65
0	1280455	128045.4	11
0	1281909	128190.8	19
0	1285543	128554.2	6
0	1286387	128638.6	58
0	1286985	128698.4	3
0	1289433	128943.2	141
0	1289873	128987.2	26
0	1290385	129038.4	28
0	1290859	129085.8	177
0	1291235	129123.4	39
0	1291721	129172	38
0	1292505	129250.4	46
0	1293743	129374.2	51
0	1295071	129507	40
0	1296145	129614.4	10
0	1296555	129655.4	25
0	1297111	129711	116
0	1298255	129825.4	116
0	1299643	129964.2	29
0	1299993	129999.2	22
0	1300031	130003	9
0	1300471	130047	4
0	1301535	130153.4	5
0	1301711	130171	40
0	1305445	130544.4	1
0	1309363	130936.2	54
0	1312953	131295.2	62
0	1314745	131474.4	174
0	1315015	131501.4	11
0	1317271	131727	34
0	1318633	131863.2	12
0	1319123	131912.2	9
0	1319751	131975	31
0	1319881	131988	33
0	1320927	132092.6	4
0	1322215	132221.4	120
0	1323385	132338.4	55
0	1323935	132393.4	54
0	1324803	132480.2	44
0	1325923	132592.2	127
0	1329307	132930.6	119
0	1329735	132973.4	19
0	1330635	133063.4	201
0	1330721	133072	85
0	1330971	133097	136
0	1335701	133570	6
0	1336899	133689.8	60
0	1337017	133701.6	43
0	1337213	133721.2	1
0	1337759	133775.8	22
0	1341669	134166.8	106
0	1342589	134258.8	9
0	1345141	134514	14
0	1345455	134545.4	119
0	1346515	134651.4	147
0	1346849	134684.8	105
0	1348273	134827.2	51
0	1350063	135006.2	125
0	1350157	135015.6	21
0	1350381	135038	37
0	1350965	135096.4	61
0	1350989	135098.8	2
0	1351337	135133.6	115
0	1351793	135179.2	97
0	1352355	135235.4	127
0	1354347	135434.6	14
0	1355833	135583.2	6
0	1357911	135791	21
0	1359839	135983.8	42
0	1360871	136087	176
0	1361147	136114.6	52
0	1361833	136183.2	301
0	1362225	136222.4	70
0	1365285	136528.4	34
0	1366369	136636.8	86
0	1366499	136649.8	24
0	1367005	136700.4	192
0	1368803	136880.2	93
0	1369299	136929.8	2
0	1369749	136974.8	4
0	1371215	137121.4	9
0	1372383	137238.2	12
0	1376405	137640.4	42
0	1378131	137813	21
0	1378507	137850.6	110
0	1378755	137875.4	235
0	1380693	138069.2	35
0	1382889	138288.8	11
0	1383249	138324.8	53
0	1384869	138486.8	3
0	1384901	138490	22
0	1385565	138556.4	11
0	1385713	138571.2	39
0	1389931	138993	64
0	1394431	139443	14
0	1395611	139561	11
0	1395937	139593.6	9
0	1396005	139600.4	21
0	1398731	139873	186
0	1398835	139883.4	9
0	1400691	140069	27
0	1404349	140434.8	176
0	1405021	140502	106
0	1406835	140683.4	42
0	1407889	140788.8	21
0	1408087	140808.6	49
0	1409049	140904.8	288
0	1409639	140963.8	20
0	1409865	140986.4	40
0	1411115	141111.4	18
0	1411503	141150.2	138
0	1415955	141595.4	17
0	1419229	141922.8	59
0	1421317	142131.6	39
0	1421475	142147.4	77
0	1423787	142378.6	55
0	1423957	142395.6	46
0	1425851	142585	142
0	1428119	142811.8	27
0	1432215	143221.4	40
0	1432783	143278.2	23
0	1436071	143607	206
0	1437369	143736.8	208
0	1438279	143827.8	27
0	1441761	144176	9
0	1442799	144279.8	119
0	1445373	144537.2	193
0	1445625	144562.4	143
0	1447687	144768.6	72
0	1448693	144869.2	26
0	1449433	144943.2	138
0	1451395	145139.4	35
0	1454467	145446.6	7
0	1454649	145464.8	38
0	1455673	145567.2	28
0	1456739	145673.8	11
0	1457721	145772	70
0	1459997	145999.6	94
0	1462013	146201.2	160
0	1462685	146268.4	131
0	1462893	146289.2	99
0	1464565	146456.4	49
0	1465187	146518.6	28
0	1465479	146547.8	17
0	1466647	146664.6	74
0	1467827	146782.6	235
0	1468381	146838	34
0	1468693	146869.2	39
0	1469949	146994.8	45
0	1470379	147037.8	324
0	1470537	147053.6	107
0	1472393	147239.2	143
0	1475711	147571	86
0	1476515	147651.4	22
0	1477673	147767.2	77
0	1479783	147978.2	36
0	1480451	148045	95
0	1480753	148075.2	277
0	1483949	148394.8	23
0	1484517	148451.6	8
0	1487281	148728	27
0	1487819	148781.8	67
0	1487947	148794.6	20
0	1488137	148813.6	133
0	1488987	148898.6	38
0	1489021	148902	31
0	1492251	149225	86
0	1493701	149370	48
0	1495651	149565	4
0	1496321	149632	47
0	1497999	149799.8	95
0	1500823	150082.2	2
0	1502671	150267	51
0	1504381	150438	43
0	1505089	150508.8	230
0	1507221	150722	25
0	1509537	150953.6	53
0	1511377	151137.6	94
0	1513193	151319.2	173
0	1513717	151371.6	37
0	1516161	151616	264
0	1518573	151857.2	16
0	1521729	152172.8	15
0	1524575	152457.4	8
0	1526291	152629	4
0	1526393	152639.2	21
0	1527333	152733.2	29
0	1528853	152885.2	71
0	1532057	153205.6	131
0	1532383	153238.2	89
0	1536023	153602.2	128
0	1536675	153667.4	15
0	1543403	154340.2	9
0	1545031	154503	136
0	1547023	154702.2	173
0	1547903	154790.2	27
0	1549323	154932.2	114
0	1549663	154966.2	77
0	1551373	155137.2	123
0	1551579	155157.8	81
0	1553391	155339	15
0	1554759	155475.8	70
0	1555017	155501.6	22
0	1555785	155578.4	25
0	1555839	155583.8	15
0	1558379	155837.8	45
0	1559519	155951.8	15
0	1559887	155988.6	32
0	1561399	156139.8	36
0	1563071	156307	94
0	1563459	156345.8	28
0	1564211	156421	54
0	1564531	156453	28
0	1565853	156585.2	7
0	1568841	156884	77
0	1570141	157014	93
0	1571997	157199.6	37
0	1574749	157474.8	10
0	1575535	157553.4	113
0	1577783	157778.2	47
0	1579365	157936.4	9
0	1579595	157959.4	70
0	1580187	158018.6	49
0	1580789	158078.8	66
0	1582561	158256	35
0	1582693	158269.2	26
0	1584557	158455.6	6
0	1586145	158614.4	24
0	1587985	158798.4	7
0	1590005	159000.4	16
0	1592495	159249.4	64
0	1592763	159276.2	13
0	1592993	159299.2	53
0	1596885	159688.4	39
0	1596983	159698.2	11
0	1602885	160288.4	7
0	1603455	160345.4	72
0	1603915	160391.4	6
0	1604945	160494.4	19
0	1605725	160572.4	48
0	1606323	160632.2	1
0	1608115	160811.4	29
0	1609475	160947.4	15
0	1609787	160978.6	1
0	1612411	161241	34
0	1613729	161372.8	98
0	1615047	161504.6	11
0	1616343	161634.2	51
0	1618643	161864.2	22
0	1619353	161935.2	172
0	1620115	162011.4	69
0	1620761	162076	139
0	1621635	162163.4	15
0	1624069	162406.8	158
0	1627145	162714.4	107
0	1627689	162768.8	6
0	1628565	162856.4	42
0	1631503	163150.2	86
0	1633249	163324.8	72
0	1633629	163362.8	74
0	1634891	163489	11
0	1635233	163523.2	98
0	1635665	163566.4	110
0	1637019	163701.8	20
0	1638161	163816	90
0	1638895	163889.4	47
0	1640619	164061.8	63
0	1643439	164343.8	38
0	1645075	164507.4	38
0	1645933	164593.2	99
0	1647167	164716.6	55
0	1650641	165064	120
0	1652573	165257.2	34
0	1652955	165295.4	38
0	1658521	165852	27
0	1658859	165885.8	20
0	1660177	166017.6	112
0	1662391	166239	28
0	1663539	166353.8	9
0	1664067	166406.6	92
0	1664627	166462.6	61
0	1665573	166557.2	42
0	1665633	166563.2	32
0	1666025	166602.4	95
0	1667293	166729.2	67
0	1667435	166743.4	137
0	1668101	166810	105
0	1668989	166898.8	8
0	1671681	167168	97
0	1671893	167189.2	92
0	1672833	167283.2	80
0	1673437	167343.6	2
0	1673969	167396.8	10
0	1676247	167624.6	10
0	1676853	167685.2	63
0	1678137	167813.6	90
0	1681395	168139.4	27
0	1681809	168180.8	1
0	1682319	168231.8	77
0	1683457	168345.6	64
0	1683557	168355.6	83
0	1684211	168421	35
0	1685007	168500.6	10
0	1685101	168510	79
0	1687377	168737.6	230
0	1688985	168898.4	26
0	1689071	168907	49
0	1692081	169208	28
0	1692419	169241.8	11
0	1693001	169300	115
0	1693119	169311.8	50
0	1693499	169349.8	188
0	1695023	169502.2	208
0	1696091	169609	78
0	1697193	169719.2	8