version 3
run General-2-20230611-05:47:38-420095
attr configname General
attr datetime 20230611-05:47:38
attr datetimef 20230611-054738
attr experiment General
attr inifile omnetpp.ini
attr iterationvars $N=4
attr iterationvarsd N=4
attr iterationvarsf N=4-
attr measurement $N=4
attr network LN
attr processid 420095
attr repetition 2
attr replication #2
attr resultdir results
attr runnumber 2
attr seedset 2
itervar N 4
config network LN
config sim-time-limit 250000s
config **.tic[*].hopCount.result-recording-modes +vector
config *.numCentralNodes 4
config repeat 4

vector 0 LN.lnd[9] hopCount:vector ETV
attr interpolationmode none
attr recordingmode vector
attr source arrival
attr title "hop count"
vector 1 LN.lnd[18] hopCount:vector ETV
attr interpolationmode none
attr recordingmode vector
attr source arrival
attr title "hop count"
vector 2 LN.lnd[11] hopCount:vector ETV
attr interpolationmode none
attr recordingmode vector
attr source arrival
attr title "hop count"
vector 3 LN.lnd[7] hopCount:vector ETV
attr interpolationmode none
attr recordingmode vector
attr source arrival
attr title "hop count"
vector 4 LN.lnd[0] hopCount:vector ETV
attr interpolationmode none
attr recordingmode vector
attr source arrival
attr title "hop count"
vector 5 LN.lnd[1] hopCount:vector ETV
attr interpolationmode none
attr recordingmode vector
attr source arrival
attr title "hop count"
vector 6 LN.lnd[16] hopCount:vector ETV
attr interpolationmode none
attr recordingmode vector
attr source arrival
attr title "hop count"
vector 7 LN.lnd[13] hopCount:vector ETV
attr interpolationmode none
attr recordingmode vector
attr source arrival
attr title "hop count"
vector 8 LN.lnd[14] hopCount:vector ETV
attr interpolationmode none
attr recordingmode vector
attr source arrival
attr title "hop count"
vector 9 LN.lnd[6] hopCount:vector ETV
attr interpolationmode none
attr recordingmode vector
attr source arrival
attr title "hop count"
vector 10 LN.lnd[2] hopCount:vector ETV
attr interpolationmode none
attr recordingmode vector
attr source arrival
attr title "hop count"
vector 11 LN.lnd[12] hopCount:vector ETV
attr interpolationmode none
attr recordingmode vector
attr source arrival
attr title "hop count"
vector 12 LN.lnd[17] hopCount:vector ETV
attr interpolationmode none
attr recordingmode vector
attr source arrival
attr title "hop count"
vector 13 LN.lnd[8] hopCount:vector ETV
attr interpolationmode none
attr recordingmode vector
attr source arrival
attr title "hop count"
vector 14 LN.lnd[5] hopCount:vector ETV
attr interpolationmode none
attr recordingmode vector
attr source arrival
attr title "hop count"
vector 15 LN.lnd[10] hopCount:vector ETV
attr interpolationmode none
attr recordingmode vector
attr source arrival
attr title "hop count"
vector 16 LN.lnd[4] hopCount:vector ETV
attr interpolationmode none
attr recordingmode vector
attr source arrival
attr title "hop count"
vector 17 LN.lnd[15] hopCount:vector ETV
attr interpolationmode none
attr recordingmode vector
attr source arrival
attr title "hop count"
vector 18 LN.lnd[3] hopCount:vector ETV
attr interpolationmode none
attr recordingmode vector
attr source arrival
attr title "hop count"
vector 19 LN.lnd[19] hopCount:vector ETV
attr interpolationmode none
attr recordingmode vector
attr source arrival
attr title "hop count"
0	10	0.9	9
0	1766	176.5	36
0	4712	471.1	11
0	5434	543.3	127
0	5456	545.5	10
0	6682	668.1	83
0	6748	674.7	23
0	8042	804.1	1
0	8306	830.5	10
0	12204	1220.3	19
0	13386	1338.5	1
0	15740	1573.9	163
0	17478	1747.7	4
0	17488	1748.7	4
0	20552	2055.1	37
0	20810	2080.9	169
0	21066	2106.5	15
0	22358	2235.7	102
0	27584	2758.3	152
0	29724	2972.3	33
0	30166	3016.5	1
0	34660	3465.9	8
0	35108	3510.7	247
0	36748	3674.7	34
0	38174	3817.3	35
0	39262	3926.1	44
0	39292	3929.1	1
0	42328	4232.7	8
0	42616	4261.5	82
0	45808	4580.7	38
0	46190	4618.9	10
0	46500	4649.9	44
0	46804	4680.3	29
0	48636	4863.5	16
0	49578	4957.7	91
0	50580	5057.9	14
0	51556	5155.5	88
0	52294	5229.3	35
0	58576	5857.5	64
0	59884	5988.3	11
0	60822	6082.1	16
0	61234	6123.3	81
0	61430	6142.9	70
0	62708	6270.7	13
0	66888	6688.7	1
0	67418	6741.7	132
0	67856	6785.5	123
0	70170	7016.9	130
0	71868	7186.7	2
0	72578	7257.7	129
0	74222	7422.1	4
0	75428	7542.7	26
0	75750	7574.9	23
0	77396	7739.5	7
0	78530	7852.9	66
0	83230	8322.9	16
0	84844	8484.3	28
0	85462	8546.1	134
0	86180	8617.9	39
0	86254	8625.3	23
0	86788	8678.7	14
0	86844	8684.3	34
0	87880	8787.9	70
0	88288	8828.7	40
0	89698	8969.7	6
0	91290	9128.9	61
0	93760	9375.9	201
0	96910	9690.9	156
0	97266	9726.5	29
0	99902	9990.1	87
0	99936	9993.5	2
0	100400	10039.9	124
0	102292	10229.1	113
0	103880	10387.9	23
0	104180	10417.9	1
0	106916	10691.5	8
0	107042	10704.1	43
0	107130	10712.9	19
0	107936	10793.5	42
0	109038	10903.7	222
0	109246	10924.5	1
0	112102	11210.1	13
0	113648	11364.7	21
0	113706	11370.5	6
0	114144	11414.3	60
0	115820	11581.9	165
0	116640	11663.9	92
0	117788	11778.7	37
0	119524	11952.3	41
0	119904	11990.3	51
0	121048	12104.7	28
0	123844	12384.3	42
0	124432	12443.1	59
0	124744	12474.3	62
0	125898	12589.7	56
0	126162	12616.1	71
0	129380	12937.9	47
0	131264	13126.3	57
0	135974	13597.3	21
0	136792	13679.1	165
0	140032	14003.1	38
0	142010	14200.9	19
0	143502	14350.1	17
0	146042	14604.1	28
0	148940	14893.9	4
0	149304	14930.3	79
0	150440	15043.9	23
0	151802	15180.1	32
0	152726	15272.5	1
0	153874	15387.3	8
0	155038	15503.7	42
0	155644	15564.3	13
0	155896	15589.5	11
0	157422	15742.1	1
0	157584	15758.3	73
0	157900	15789.9	54
0	158238	15823.7	50
0	158590	15858.9	8
0	158998	15899.7	2
0	159108	15910.7	19
0	160332	16033.1	16
0	163206	16320.5	160
0	166540	16653.9	16
0	167556	16755.5	103
0	168762	16876.1	56
0	170158	17015.7	55
0	172984	17298.3	8
0	173820	17381.9	49
0	175208	17520.7	41
0	177590	17758.9	104
0	178122	17812.1	37
0	178606	17860.5	9
0	181954	18195.3	122
0	182098	18209.7	131
0	182262	18226.1	51
0	185878	18587.7	122
0	187268	18726.7	11
0	187820	18781.9	52
0	188160	18815.9	21
0	190330	19032.9	11
0	191468	19146.7	165
0	193070	19306.9	34
0	195630	19562.9	1
0	197192	19719.1	118
0	197672	19767.1	31
0	197980	19797.9	142
0	201298	20129.7	39
0	201492	20149.1	31
0	203734	20373.3	78
0	205496	20549.5	5
0	205934	20593.3	38
0	206272	20627.1	18
0	206362	20636.1	83
0	207478	20747.7	12
0	210162	21016.1	62
0	213768	21376.7	12
0	213956	21395.5	84
0	214028	21402.7	69
0	215042	21504.1	140
0	216200	21619.9	118
0	216852	21685.1	17
0	218548	21854.7	38
0	219638	21963.7	269
0	220836	22083.5	1
0	220898	22089.7	16
0	221950	22194.9	22
0	222926	22292.5	269
0	223208	22320.7	39
0	225664	22566.3	21
0	226568	22656.7	4
0	227306	22730.5	28
0	227592	22759.1	90
0	227718	22771.7	17
0	228510	22850.9	106
0	230824	23082.3	33
0	231042	23104.1	13
0	232314	23231.3	52
0	232368	23236.7	14
0	233124	23312.3	12
0	234470	23446.9	29
0	235320	23531.9	18
0	236702	23670.1	7
0	238210	23820.9	63
0	238582	23858.1	18
0	243574	24357.3	9
0	243968	24396.7	42
0	246330	24632.9	51
0	247470	24746.9	10
0	247816	24781.5	50
0	248246	24824.5	49
0	248636	24863.5	150
0	248670	24866.9	20
0	250262	25026.1	28
0	251432	25143.1	370
0	251598	25159.7	47
0	252558	25255.7	54
0	258558	25855.7	5
0	259010	25900.9	26
0	259642	25964.1	1
0	259808	25980.7	1
0	260766	26076.5	21
0	263052	26305.1	33
0	263394	26339.3	40
0	263872	26387.1	35
0	267612	26761.1	20
0	269454	26945.3	51
0	269688	26968.7	21
0	270504	27050.3	38
0	271518	27151.7	125
0	272358	27235.7	2
0	275416	27541.5	14
0	276118	27611.7	127
0	276288	27628.7	27
0	276346	27634.5	17
0	279024	27902.3	18
0	281340	28133.9	141
0	281522	28152.1	41
0	283728	28372.7	34
0	284148	28414.7	1
0	285064	28506.3	17
0	285336	28533.5	40
0	286168	28616.7	18
0	287620	28761.9	9
0	288342	28834.1	53
0	289358	28935.7	154
0	290588	29058.7	105
0	292188	29218.7	16
0	292478	29247.7	22
0	293338	29333.7	60
0	295182	29518.1	103
0	296142	29614.1	35
0	298792	29879.1	42
0	299406	29940.5	42
0	300348	30034.7	44
0	302934	30293.3	37
0	303616	30361.5	31
0	305372	30537.1	22
0	306300	30629.9	15
0	307174	30717.3	1
0	311150	31114.9	34
0	313408	31340.7	28
0	315288	31528.7	17
0	316926	31692.5	28
0	319910	31990.9	3
0	321298	32129.7	116
0	323302	32330.1	96
0	324852	32485.1	144
0	325862	32586.1	204
0	326458	32645.7	43
0	330194	33019.3	166
0	331054	33105.3	52
0	334896	33489.5	39
0	336750	33674.9	21
0	337406	33740.5	34
0	338006	33800.5	15
0	340636	34063.5	17
0	341888	34188.7	1
0	343778	34377.7	114
0	344288	34428.7	49
0	344922	34492.1	124
0	348332	34833.1	8
0	350864	35086.3	14
0	351056	35105.5	105
0	353864	35386.3	55
0	354716	35471.5	198
0	356688	35668.7	227
0	358526	35852.5	29
0	358878	35887.7	58
0	361374	36137.3	1
0	367500	36749.9	19
0	368384	36838.3	154
0	369652	36965.1	5
0	373608	37360.7	98
0	373994	37399.3	13
0	374096	37409.5	23
0	374494	37449.3	7
0	375018	37501.7	26
0	375490	37548.9	87
0	378164	37816.3	67
0	379136	37913.5	1
0	379794	37979.3	13
0	381984	38198.3	43
0	386252	38625.1	160
0	386596	38659.5	3
0	388704	38870.3	127
0	388948	38894.7	42
0	391608	39160.7	16
0	392372	39237.1	20
0	392688	39268.7	13
0	395906	39590.5	72
0	396266	39626.5	47
0	396642	39664.1	15
0	397188	39718.7	22
0	398678	39867.7	54
0	405426	40542.5	26
0	406846	40684.5	21
0	408588	40858.7	79
0	409336	40933.5	4
0	410368	41036.7	14
0	411716	41171.5	7
0	413412	41341.1	83
0	413514	41351.3	86
0	421632	42163.1	3
0	422716	42271.5	1
0	423750	42374.9	85
0	424660	42465.9	9
0	429048	42904.7	52
0	431498	43149.7	15
0	434828	43482.7	84
0	437786	43778.5	113
0	438948	43894.7	113
0	440284	44028.3	2
0	442456	44245.5	40
0	445226	44522.5	24
0	448100	44809.9	77
0	450138	45013.7	29
0	450610	45060.9	1
0	451372	45137.1	4
0	452796	45279.5	12
0	455820	45581.9	3
0	457338	45733.7	42
0	459730	45972.9	30
0	459938	45993.7	31
0	462240	46223.9	197
0	464596	46459.5	137
0	466418	46641.7	261
0	467514	46751.3	142
0	468476	46847.5	5
0	469592	46959.1	112
0	470562	47056.1	75
0	474328	47432.7	34
0	475360	47535.9	1
0	477116	47711.5	1
0	478684	47868.3	157
0	479224	47922.3	1
0	479890	47988.9	55
0	480860	48085.9	87
0	481710	48170.9	5
0	484800	48479.9	34
0	485756	48575.5	30
0	486762	48676.1	20
0	488680	48867.9	228
0	489322	48932.1	88
0	489604	48960.3	32
0	492342	49234.1	11
0	496178	49617.7	40
0	496732	49673.1	82
0	497748	49774.7	12
0	498628	49862.7	79
0	498968	49896.7	2
0	500014	50001.3	38
0	500476	50047.5	22
0	500750	50074.9	62
0	502588	50258.7	62
0	503688	50368.7	39
0	506872	50687.1	21
0	507054	50705.3	35
0	509866	50986.5	159
0	510576	51057.5	35
0	510830	51082.9	112
0	515920	51591.9	23
0	519138	51913.7	65
0	521272	52127.1	60
0	524130	52412.9	56
0	526788	52678.7	21
0	528486	52848.5	27
0	530602	53060.1	104
0	532342	53234.1	5
0	533038	53303.7	42
0	533506	53350.5	108
0	535408	53540.7	15
0	537438	53743.7	38
0	537850	53784.9	4
0	539280	53927.9	105
0	539418	53941.7	87
0	539548	53954.7	2
0	540960	54095.9	7
0	541210	54120.9	11
0	541780	54177.9	23
0	542754	54275.3	13
0	543720	54371.9	60
0	545898	54589.7	58
0	547612	54761.1	136
0	548420	54841.9	69
0	549510	54950.9	23
0	550386	55038.5	50
0	551856	55185.5	58
0	552292	55229.1	12
0	552396	55239.5	2
0	553694	55369.3	128
0	555800	55579.9	37
0	555866	55586.5	13
0	557620	55761.9	62
0	558486	55848.5	14
0	558510	55850.9	1
0	558946	55894.5	1
0	562590	56258.9	7
0	562712	56271.1	29
0	564346	56434.5	202
0	565816	56581.5	17
0	566534	56653.3	1
0	567964	56796.3	68
0	569342	56934.1	30
0	569830	56982.9	19
0	570794	57079.3	179
0	573974	57397.3	85
0	574120	57411.9	104
0	577766	57776.5	98
0	578094	57809.3	42
0	578572	57857.1	36
0	578682	57868.1	93
0	578900	57889.9	48
0	579668	57966.7	9
0	580056	58005.5	5
0	580408	58040.7	5
0	583150	58314.9	154
0	583274	58327.3	25
0	584452	58445.1	43
0	585584	58558.3	5
0	586998	58699.7	266
0	588498	58849.7	1
0	588842	58884.1	99
0	589406	58940.5	44
0	589812	58981.1	140
0	593842	59384.1	66
0	598354	59835.3	1
0	600016	60001.5	78
0	605774	60577.3	17
0	607600	60759.9	23
0	607768	60776.7	23
0	611422	61142.1	37
0	612166	61216.5	257
0	613588	61358.7	47
0	615508	61550.7	34
0	618660	61865.9	16
0	618726	61872.5	4
0	618800	61879.9	8
0	619100	61909.9	8
0	619128	61912.7	8
0	620066	62006.5	2
0	620782	62078.1	150
0	625240	62523.9	5
0	626412	62641.1	1
0	630238	63023.7	3
0	631046	63104.5	97
0	631442	63144.1	14
0	633520	63351.9	13
0	634632	63463.1	80
0	635060	63505.9	57
0	640298	64029.7	27
0	641966	64196.5	56
0	643696	64369.5	184
0	646582	64658.1	104
0	646712	64671.1	128
0	647046	64704.5	7
0	648138	64813.7	8
0	649188	64918.7	27
0	650124	65012.3	11
0	652550	65254.9	58
0	654216	65421.5	588
0	655070	65506.9	86
0	655522	65552.1	38
0	655554	65555.3	27
0	656304	65630.3	4
0	656726	65672.5	65
0	659004	65900.3	16
0	662022	66202.1	215
0	662610	66260.9	37
0	664682	66468.1	121
0	665154	66515.3	128
0	665730	66572.9	44
0	666680	66667.9	22
0	668858	66885.7	98
0	669060	66905.9	23
0	671950	67194.9	30
0	672926	67292.5	7
0	673590	67358.9	1
0	674670	67466.9	8
0	674970	67496.9	88
0	675212	67521.1	33
0	678378	67837.7	32
0	679858	67985.7	6
0	680658	68065.7	1
0	680730	68072.9	9
0	681342	68134.1	22
0	682318	68231.7	158
0	682716	68271.5	5
0	685276	68527.5	7
0	687232	68723.1	34
0	690040	69003.9	11
0	690784	69078.3	50
0	692212	69221.1	12
0	692806	69280.5	42
0	693442	69344.1	70
0	698010	69800.9	49
0	700568	70056.7	55
0	702794	70279.3	43
0	703742	70374.1	156
0	706048	70604.7	58
0	707548	70754.7	93
0	708364	70836.3	11
0	708982	70898.1	89
0	711408	71140.7	178
0	713808	71380.7	45
0	716404	71640.3	279
0	717676	71767.5	13
0	717818	71781.7	26
0	721108	72110.7	134
0	722886	72288.5	3
0	725042	72504.1	7
0	725728	72572.7	52
0	729154	72915.3	103
0	729184	72918.3	20
0	730336	73033.5	158
0	731086	73108.5	197
0	731352	73135.1	9
0	733192	73319.1	40
0	734544	73454.3	42
0	737154	73715.3	42
0	737510	73750.9	15
0	738790	73878.9	109
0	739694	73969.3	214
0	739862	73986.1	72
0	740132	74013.1	74
0	742278	74227.7	120
0	743010	74300.9	199
0	743620	74361.9	31
0	744762	74476.1	55
0	745466	74546.5	178
0	746564	74656.3	72
0	746968	74696.7	176
0	748476	74847.5	14
0	748870	74886.9	1
0	749252	74925.1	64
0	749894	74989.3	155
0	749980	74997.9	18
0	750332	75033.1	113
0	752340	75233.9	1
0	753346	75334.5	56
0	753554	75355.3	64
0	756960	75695.9	55
0	757060	75705.9	18
0	757272	75727.1	6
0	761662	76166.1	46
0	762226	76222.5	18
0	764384	76438.3	68
0	767038	76703.7	78
0	769676	76967.5	91
0	771186	77118.5	93
0	771716	77171.5	2
0	772186	77218.5	11
0	772418	77241.7	213
0	775150	77514.9	2
0	776746	77674.5	10
0	777024	77702.3	76
0	777508	77750.7	54
0	777962	77796.1	238
0	777966	77796.5	3
0	778530	77852.9	45
0	784168	78416.7	230
0	784824	78482.3	23
0	785540	78553.9	151
0	785700	78569.9	16
0	787616	78761.5	11
0	787866	78786.5	46
0	787930	78792.9	6
0	789230	78922.9	82
0	789774	78977.3	19
0	790846	79084.5	98
0	792838	79283.7	29
0	796168	79616.7	126
0	796902	79690.1	5
0	799982	79998.1	2
0	802890	80288.9	21
0	803208	80320.7	96
0	804342	80434.1	61
0	805592	80559.1	78
0	806802	80680.1	45
0	807596	80759.5	14
0	808554	80855.3	24
0	811766	81176.5	4
0	812078	81207.7	250
0	812268	81226.7	42
0	813962	81396.1	36
0	814066	81406.5	6
0	815496	81549.5	17
0	817668	81766.7	23
0	818416	81841.5	334
0	822430	82242.9	51
0	822836	82283.5	45
0	825336	82533.5	89
0	827072	82707.1	20
0	832958	83295.7	1
0	834132	83413.1	10
0	835164	83516.3	1
0	839978	83997.7	15
0	840812	84081.1	136
0	842644	84264.3	145
0	843038	84303.7	14
0	845116	84511.5	80
0	847732	84773.1	102
0	854724	85472.3	87
0	854846	85484.5	14
0	855204	85520.3	81
0	857226	85722.5	41
0	858400	85839.9	35
0	860710	86070.9	22
0	861436	86143.5	108
0	862486	86248.5	3
0	864212	86421.1	46
0	869138	86913.7	155
0	869620	86961.9	51
0	872926	87292.5	24
0	876010	87600.9	7
0	876164	87616.3	6
0	876472	87647.1	45
0	876942	87694.1	56
0	877082	87708.1	2
0	877708	87770.7	74
0	878546	87854.5	45
0	880798	88079.7	5
0	882156	88215.5	9
0	884108	88410.7	24
0	885786	88578.5	99
0	885826	88582.5	3
0	886376	88637.5	264
0	889488	88948.7	166
0	891004	89100.3	35
0	891836	89183.5	46
0	891850	89184.9	7
0	895426	89542.5	2
0	896742	89674.1	19
0	897710	89770.9	146
0	898448	89844.7	76
0	898858	89885.7	63
0	899364	89936.3	84
0	900026	90002.5	12
0	901018	90101.7	216
0	902692	90269.1	1
0	903292	90329.1	52
0	904214	90421.3	193
0	906620	90661.9	121
0	914358	91435.7	13
0	915396	91539.5	82
0	915724	91572.3	31
0	916268	91626.7	8
0	917934	91793.3	158
0	918078	91807.7	7
0	918454	91845.3	26
0	919184	91918.3	9
0	921878	92187.7	25
0	922270	92226.9	13
0	924766	92476.5	21
0	924780	92477.9	2
0	926252	92625.1	1
0	929290	92928.9	1
0	929860	92985.9	257
0	934856	93485.5	11
0	935324	93532.3	74
0	939674	93967.3	30
0	940508	94050.7	15
0	941200	94119.9	1
0	941664	94166.3	5
0	946312	94631.1	44
0	948166	94816.5	75
0	948282	94828.1	82
0	948654	94865.3	13
0	950074	95007.3	6
0	951458	95145.7	51
0	951686	95168.5	1
0	955384	95538.3	53
0	955956	95595.5	1
0	956948	95694.7	34
0	957164	95716.3	6
0	957524	95752.3	28
0	958668	95866.7	12
0	959472	95947.1	173
0	959958	95995.7	77
0	966794	96679.3	228
0	967790	96778.9	46
0	968736	96873.5	1
0	972212	97221.1	52
0	972988	97298.7	1
0	973394	97339.3	112
0	973888	97388.7	63
0	974578	97457.7	56
0	976110	97610.9	59
0	982314	98231.3	9
0	984244	98424.3	84
0	987110	98710.9	87
0	988998	98899.7	59
0	989276	98927.5	196
0	995358	99535.7	27
0	996592	99659.1	93
0	999088	99908.7	12
0	999642	99964.1	31
0	999984	99998.3	52
0	1000760	100075.9	42
0	1001590	100158.9	30
0	1005772	100577.1	137
0	1006486	100648.5	42
0	1008018	100801.7	21
0	1008162	100816.1	39
0	1010926	101092.5	115
0	1011602	101160.1	32
0	1013284	101328.3	108
0	1015546	101554.5	1
0	1016972	101697.1	12
0	1017630	101762.9	48
0	1018174	101817.3	69
0	1019268	101926.7	19
0	1022356	102235.5	88
0	1022836	102283.5	43
0	1024394	102439.3	3
0	1026416	102641.5	110
0	1030220	103021.9	26
0	1030896	103089.5	39
0	1031828	103182.7	55
0	1033858	103385.7	109
0	1033860	103385.9	1
0	1036458	103645.7	9
0	1041374	104137.3	109
0	1042430	104242.9	2
0	1044586	104458.5	1
0	1045890	104588.9	9
0	1046370	104636.9	20
0	1046998	104699.7	69
0	1048414	104841.3	72
0	1048724	104872.3	23
0	1049784	104978.3	26
0	1050642	105064.1	3
0	1051328	105132.7	8
0	1053344	105334.3	4
0	1054432	105443.1	310
0	1055766	105576.5	55
0	1056638	105663.7	120
0	1057536	105753.5	32
0	1058268	105826.7	44
0	1058922	105892.1	110
0	1061822	106182.1	68
0	1061900	106189.9	1
0	1065386	106538.5	47
0	1065666	106566.5	49
0	1069680	106967.9	17
0	1071172	107117.1	69
0	1071358	107135.7	33
0	1073488	107348.7	3
0	1073634	107363.3	17
0	1073738	107373.7	18
0	1074580	107457.9	101
0	1076966	107696.5	6
0	1077948	107794.7	18
0	1078342	107834.1	4
0	1080570	108056.9	98
0	1081230	108122.9	78
0	1081728	108172.7	5
0	1082462	108246.1	5
0	1085872	108587.1	3
0	1087092	108709.1	41
0	1087718	108771.7	21
0	1087872	108787.1	1
0	1088280	108827.9	67
0	1088778	108877.7	14
0	1090484	109048.3	29
0	1092476	109247.5	25
0	1093578	109357.7	31
0	1093810	109380.9	96
0	1093916	109391.5	11
0	1094270	109426.9	1
0	1094818	109481.7	3
0	1095318	109531.7	53
0	1095942	109594.1	5
0	1097252	109725.1	51
0	1098288	109828.7	1
0	1099292	109929.1	13
0	1099440	109943.9	7
0	1101396	110139.5	9
0	1102102	110210.1	83
0	1104214	110421.3	18
0	1104590	110458.9	73
0	1104852	110485.1	1
0	1105392	110539.1	106
0	1107000	110699.9	18
0	1107478	110747.7	160
0	1107702	110770.1	17
0	1108216	110821.5	115
0	1109048	110904.7	267
0	1110374	111037.3	33
0	1111174	111117.3	19
0	1111666	111166.5	28
0	1113564	111356.3	51
0	1116658	111665.7	170
0	1118756	111875.5	12
0	1120892	112089.1	21
0	1121930	112192.9	30
0	1123700	112369.9	26
0	1124670	112466.9	4
0	1126332	112633.1	115
0	1126718	112671.7	1
0	1126942	112694.1	41
0	1127554	112755.3	94
0	1129752	112975.1	1
0	1131844	113184.3	83
0	1134752	113475.1	82
0	1135000	113499.9	11
0	1135196	113519.5	92
0	1136152	113615.1	65
0	1139330	113932.9	139
0	1141556	114155.5	75
0	1142906	114290.5	26
0	1143386	114338.5	84
0	1145174	114517.3	83
0	1145524	114552.3	76
0	1146902	114690.1	30
0	1146910	114690.9	1
0	1149750	114974.9	2
0	1150042	115004.1	6
0	1150412	115041.1	134
0	1150694	115069.3	22
0	1151086	115108.5	101
0	1151536	115153.5	25
0	1152690	115268.9	1
0	1153196	115319.5	42
0	1155554	115555.3	65
0	1157808	115780.7	1
0	1158448	115844.7	30
0	1159790	115978.9	65
0	1162056	116205.5	122
0	1163112	116311.1	11
0	1164508	116450.7	44
0	1169438	116943.7	58
0	1169600	116959.9	48
0	1169732	116973.1	11
0	1170052	117005.1	92
0	1170276	117027.5	203
0	1172432	117243.1	28
0	1173456	117345.5	71
0	1173690	117368.9	165
0	1178170	117816.9	86
0	1178938	117893.7	1
0	1184020	118401.9	1
0	1187080	118707.9	94
0	1187180	118717.9	20
0	1187400	118739.9	20
0	1188904	118890.3	159
0	1191088	119108.7	117
0	1191338	119133.7	186
0	1192386	119238.5	27
0	1192896	119289.5	5
0	1193384	119338.3	120
0	1194378	119437.7	5
0	1195328	119532.7	73
0	1196468	119646.7	1
0	1199864	119986.3	2
0	1202346	120234.5	153
0	1209162	120916.1	56
0	1212828	121282.7	1
0	1215636	121563.5	1
0	1216036	121603.5	50
0	1216204	121620.3	68
0	1216676	121667.5	109
0	1217152	121715.1	20
0	1220936	122093.5	33
0	1224176	122417.5	25
0	1227390	122738.9	94
0	1227490	122748.9	6
0	1230932	123093.1	64
0	1232442	123244.1	1
0	1233276	123327.5	2
0	1234456	123445.5	17
0	1234968	123496.7	15
0	1235990	123598.9	35
0	1237664	123766.3	120
0	1240734	124073.3	60
0	1240950	124094.9	58
0	1243394	124339.3	58
0	1244886	124488.5	111
0	1246254	124625.3	228
0	1246836	124683.5	29
0	1254612	125461.1	6
0	1254994	125499.3	158
0	1255696	125569.5	1
0	1255850	125584.9	7
0	1258054	125805.3	6
0	1259708	125970.7	2
0	1264000	126399.9	187
0	1265104	126510.3	1
0	1266892	126689.1	74
0	1267932	126793.1	46
0	1268398	126839.7	94
0	1271874	127187.3	97
0	1273740	127373.9	65
0	1275058	127505.7	14
0	1275416	127541.5	16
0	1277412	127741.1	59
0	1280474	128047.3	34
0	1282020	128201.9	113
0	1283086	128308.5	9
0	1283292	128329.1	11
0	1284882	128488.1	64
0	1285610	128560.9	61
0	1286418	128641.7	74
0	1286704	128670.3	12
0	1286832	128683.1	97
0	1289450	128944.9	116
0	1289736	128973.5	25
0	1290254	129025.3	226
0	1290808	129080.7	3
0	1293224	129322.3	19
0	1297148	129714.7	43
0	1297274	129727.3	24
0	1299668	129966.7	98
0	1301248	130124.7	28
0	1302496	130249.5	4
0	1302850	130284.9	134
0	1303526	130352.5	65
0	1303564	130356.3	7
0	1304226	130422.5	70
0	1305688	130568.7	239
0	1309304	130930.3	124
0	1312390	131238.9	82
0	1313164	131316.3	279
0	1313574	131357.3	37
0	1314044	131404.3	35
0	1314992	131499.1	122
0	1315242	131524.1	13
0	1316170	131616.9	9
0	1317258	131725.7	59
0	1317292	131729.1	29
0	1317706	131770.5	63
0	1322638	132263.7	38
0	1323280	132327.9	8
0	1323824	132382.3	66
0	1324052	132405.1	14
0	1324334	132433.3	21
0	1325508	132550.7	28
0	1326152	132615.1	184
0	1326632	132663.1	3
0	1330532	133053.1	195
0	1334538	133453.7	3
0	1334678	133467.7	15
0	1335162	133516.1	40
0	1335804	133580.3	17
0	1336396	133639.5	86
0	1336948	133694.7	43
0	1339790	133978.9	426
0	1340862	134086.1	43
0	1342898	134289.7	68
0	1343776	134377.5	13
0	1345032	134503.1	39
0	1346740	134673.9	266
0	1347222	134722.1	121
0	1347668	134766.7	36
0	1351144	135114.3	70
0	1352150	135214.9	174
0	1353326	135332.5	174
0	1353998	135399.7	134
0	1355468	135546.7	110
0	1356584	135658.3	48
0	1356806	135680.5	119
0	1357750	135774.9	36
0	1359480	135947.9	199
0	1360236	136023.5	1
0	1364366	136436.5	4
0	1365576	136557.5	3
0	1367134	136713.3	75
0	1375294	137529.3	63
0	1387020	138701.9	41
0	1387992	138799.1	18
0	1389056	138905.5	70
0	1390544	139054.3	34
0	1392086	139208.5	16
0	1393450	139344.9	185
0	1396738	139673.7	65
0	1397954	139795.3	49
0	1398176	139817.5	22
0	1399670	139966.9	140
0	1400484	140048.3	44
0	1404370	140436.9	43
0	1404844	140484.3	19
0	1409076	140907.5	1
0	1409458	140945.7	2
0	1409840	140983.9	1
0	1409960	140995.9	42
0	1414320	141431.9	33
0	1415816	141581.5	50
0	1417194	141719.3	311
0	1417504	141750.3	101
0	1418014	141801.3	86
0	1419212	141921.1	231
0	1421030	142102.9	20
0	1421284	142128.3	45
0	1422368	142236.7	39
0	1424878	142487.7	32
0	1428474	142847.3	15
0	1430432	143043.1	29
0	1434524	143452.3	53
0	1435170	143516.9	65
0	1436056	143605.5	185
0	1436512	143651.1	30
0	1437560	143755.9	24
0	1438838	143883.7	52
0	1439644	143964.3	72
0	1440466	144046.5	42
0	1440872	144087.1	18
0	1441960	144195.9	25
0	1442716	144271.5	38
0	1443060	144305.9	11
0	1445688	144568.7	88
0	1447178	144717.7	73
0	1447374	144737.3	6
0	1449256	144925.5	289
0	1449498	144949.7	34
0	1449568	144956.7	2
0	1455002	145500.1	4
0	1455292	145529.1	2
0	1455356	145535.5	31
0	1455850	145584.9	136
0	1457526	145752.5	5
0	1461772	146177.1	10
0	1464020	146401.9	10
0	1465040	146503.9	39
0	1465172	146517.1	46
0	1465690	146568.9	75
0	1467958	146795.7	4
0	1470820	147081.9	41
0	1476940	147693.9	89
0	1477162	147716.1	75
0	1477212	147721.1	2
0	1481514	148151.3	10
0	1481766	148176.5	25
0	1485616	148561.5	2
0	1486772	148677.1	7
0	1486950	148694.9	62
0	1488152	148815.1	48
0	1490806	149080.5	35
0	1492002	149200.1	21
0	1492484	149248.3	128
0	1493152	149315.1	11
0	1495408	149540.7	115
0	1495784	149578.3	16
0	1495970	149596.9	88
0	1496668	149666.7	1
0	1500074	150007.3	18
0	1501312	150131.1	142
0	1503020	150301.9	89
0	1503402	150340.1	17
0	1503960	150395.9	49
0	1508734	150873.3	85
0	1509128	150912.7	198
0	1509698	150969.7	10
0	1510438	151043.7	112
0	1513138	151313.7	58
0	1515392	151539.1	20
0	1515670	151566.9	25
0	1515902	151590.1	201
0	1517172	151717.1	9
0	1517320	151731.9	55
0	1517442	151744.1	11
0	1518474	151847.3	10
0	1518542	151854.1	40
0	1519012	151901.1	19
0	1520036	152003.5	21
0	1520400	152039.9	104
0	1520520	152051.9	1
0	1521436	152143.5	169
0	1521518	152151.7	39
0	1523512	152351.1	52
0	1524888	152488.7	19
0	1527352	152735.1	6
0	1527526	152752.5	16
0	1529320	152931.9	20
0	1530568	153056.7	122
0	1530824	153082.3	78
0	1531382	153138.1	24
0	1534376	153437.5	66
0	1534414	153441.3	13
0	1535048	153504.7	15
0	1535766	153576.5	70
0	1536046	153604.5	124
0	1536864	153686.3	23
0	1538086	153808.5	159
0	1538210	153820.9	18
0	1540222	154022.1	25
0	1543274	154327.3	13
0	1543414	154341.3	132
0	1548506	154850.5	23
0	1549048	154904.7	200
0	1551310	155130.9	39
0	1552966	155296.5	58
0	1553126	155312.5	39
0	1553584	155358.3	181
0	1554528	155452.7	17
0	1557178	155717.7	11
0	1558274	155827.3	1
0	1559132	155913.1	60
0	1561426	156142.5	4
0	1562374	156237.3	108
0	1564810	156480.9	8
0	1564942	156494.1	28
0	1565306	156530.5	22
0	1565310	156530.9	2
0	1565574	156557.3	62
0	1566114	156611.3	21
0	1568172	156817.1	146
0	1571440	157143.9	51
0	1571894	157189.3	67
0	1572876	157287.5	32
0	1578118	157811.7	8
0	1579054	157905.3	8
0	1580160	158015.9	1
0	1583058	158305.7	92
0	1584092	158409.1	71
0	1585132	158513.1	71
0	1585266	158526.5	3
0	1586224	158622.3	1
0	1587660	158765.9	123
0	1589422	158942.1	56
0	1589514	158951.3	78
0	1590292	159029.1	50
0	1591722	159172.1	37
0	1592110	159210.9	21
0	1594058	159405.7	1
0	1598772	159877.1	30
0	1598790	159878.9	15
0	1599356	159935.5	11
0	1599866	159986.5	130
0	1605096	160509.5	76
0	1606444	160644.3	12
0	1606860	160685.9	11
0	1608906	160890.5	41
0	1609552	160955.1	43
0	1610670	161066.9	81
0	1611414	161141.3	1
0	1611582	161158.1	29
0	1611896	161189.5	27
0	1612798	161279.7	44
0	1613926	161392.5	70
0	1618100	161809.9	38
0	1620178	162017.7	1
0	1620908	162090.7	5
0	1623570	162356.9	36
0	1623646	162364.5	49
0	1627284	162728.3	2
0	1629648	162964.7	24
0	1631928	163192.7	6
0	1633068	163306.7	37
0	1633122	163312.1	39
0	1634850	163484.9	12
0	1635212	163521.1	6
0	1638328	163832.7	22
0	1638466	163846.5	39
0	1641664	164166.3	34
0	1642452	164245.1	56
0	1644306	164430.5	17
0	1647142	164714.1	11
0	1648562	164856.1	7
0	1649258	164925.7	4
0	1649540	164953.9	126
0	1650582	165058.1	28
0	1652334	165233.3	39
0	1655914	165591.3	81
0	1657170	165716.9	78
0	1657298	165729.7	31
0	1657876	165787.5	93
0	1659098	165909.7	18
0	1660414	166041.3	96
0	1660576	166057.5	61
0	1660996	166099.5	154
0	1664030	166402.9	137
0	1664776	166477.5	9
0	1665144	166514.3	4
0	1665160	166515.9	13
0	1669950	166994.9	9
0	1670810	167080.9	343
0	1670982	167098.1	125
0	1671858	167185.7	27
0	1672122	167212.1	39
0	1673274	167327.3	24
0	1677080	167707.9	65
0	1677242	167724.1	1
0	1677510	167750.9	84
0	1679878	167987.7	44
0	1680984	168098.3	163
0	1682182	168218.1	131
0	1683818	168381.7	102
0	1683992	168399.1	66
0	1685138	168513.7	59
0	1688036	168803.5	10
0	1688596	168859.5	114
0	1689284	168928.3	103
0	1689710	168970.9	52
0	1690692	169069.1	143
0	1690808	169080.7	62
0	1691260	169125.9	126
0	1692270	169226.9	51
0	1693712	169371.1	4
0	1693810	169380.9	1
0	1694206	169420.5	93
0	1697804	169780.3	5
0	1698124	169812.3	1
0	1698200	169819.9	1
0	1698844	169884.3	58
0	1698948	169894.7	17
0	1701006	170100.5	4
0	1701012	170101.1	5
0	1702012	170201.1	47
0	1703152	170315.1	76
0	1704346	170434.5	5
0	1705768	170576.7	15
0	1706050	170604.9	115
0	1706302	170630.1	1
0	1706384	170638.3	15
0	1708894	170889.3	26
0	1709202	170920.1	82
0	1711630	171162.9	20
0	1712198	171219.7	1
0	1712720	171271.9	31
0	1713394	171339.3	114
0	1716406	171640.5	113
0	1717652	171765.1	22
0	1717854	171785.3	94
0	1718002	171800.1	41
0	1719586	171958.5	9
0	1724296	172429.5	26
0	1726674	172667.3	41
0	1726860	172685.9	95
0	1729140	172913.9	10
0	1729438	172943.7	1
0	1732804	173280.3	5
0	1736350	173634.9	51
0	1737198	173719.7	11
0	1738920	173891.9	1
0	1741856	174185.5	177
0	1742010	174200.9	23
0	1742444	174244.3	72
0	1742940	174293.9	109
0	1744116	174411.5	28
0	1745462	174546.1	143
0	1746432	174643.1	75
0	1747206	174720.5	22
0	1748864	174886.3	31
0	1749586	174958.5	32
0	1754328	175432.7	179
0	1755132	175513.1	96
0	1756508	175650.7	22
0	1756762	175676.1	1
0	1760554	176055.3	26
0	1762208	176220.7	6
0	1763766	176376.5	14
0	1766192	176619.1	3
0	1766716	176671.5	7
0	1766824	176682.3	79
0	1767786	176778.5	32
0	1768000	176799.9	162
0	1770436	177043.5	6
0	1773612	177361.1	21
0	1774954	177495.3	2
0	1776888	177688.7	89
0	1777068	177706.7	20
0	1777376	177737.5	97
0	1780636	178063.5	5
0	1784236	178423.5	33
0	1784928	178492.7	2
0	1786760	178675.9	4
0	1788788	178878.7	78
0	1789720	178971.9	1
0	1791352	179135.1	35
0	1792334	179233.3	5
0	1794848	179484.7	76
0	1795054	179505.3	21
0	1795744	179574.3	18
0	1797088	179708.7	24
0	1797924	179792.3	27
0	1798672	179867.1	12
0	1798860	179885.9	2
0	1799860	179985.9	142
0	1799972	179997.1	24
0	1800896	180089.5	2
0	1803146	180314.5	173
0	1803784	180378.3	25
0	1808858	180885.7	49
0	1809386	180938.5	55
0	1813670	181366.9	4
0	1814072	181407.1	1