version 3
run General-121-20230611-05:41:41-416641
attr configname General
attr datetime 20230611-05:41:41
attr datetimef 20230611-054141
attr experiment General
attr inifile omnetpp.ini
attr iterationvars $N=94
attr iterationvarsd N=94
attr iterationvarsf N=94-
attr measurement $N=94
attr network LN
attr processid 416641
attr repetition 1
attr replication #1
attr resultdir results
attr runnumber 121
attr seedset 121
itervar N 94
config network LN
config sim-time-limit 250000s
config **.tic[*].hopCount.result-recording-modes +vector
config *.numCentralNodes 94
config repeat 4

vector 0 LN.lnd[3] hopCount:vector ETV
attr interpolationmode none
attr recordingmode vector
attr source arrival
attr title "hop count"
vector 1 LN.lnd[2] hopCount:vector ETV
attr interpolationmode none
attr recordingmode vector
attr source arrival
attr title "hop count"
vector 2 LN.lnd[15] hopCount:vector ETV
attr interpolationmode none
attr recordingmode vector
attr source arrival
attr title "hop count"
vector 3 LN.lnd[17] hopCount:vector ETV
attr interpolationmode none
attr recordingmode vector
attr source arrival
attr title "hop count"
vector 4 LN.lnd[13] hopCount:vector ETV
attr interpolationmode none
attr recordingmode vector
attr source arrival
attr title "hop count"
vector 5 LN.lnd[6] hopCount:vector ETV
attr interpolationmode none
attr recordingmode vector
attr source arrival
attr title "hop count"
vector 6 LN.lnd[19] hopCount:vector ETV
attr interpolationmode none
attr recordingmode vector
attr source arrival
attr title "hop count"
vector 7 LN.lnd[7] hopCount:vector ETV
attr interpolationmode none
attr recordingmode vector
attr source arrival
attr title "hop count"
vector 8 LN.lnd[4] hopCount:vector ETV
attr interpolationmode none
attr recordingmode vector
attr source arrival
attr title "hop count"
vector 9 LN.lnd[10] hopCount:vector ETV
attr interpolationmode none
attr recordingmode vector
attr source arrival
attr title "hop count"
vector 10 LN.lnd[8] hopCount:vector ETV
attr interpolationmode none
attr recordingmode vector
attr source arrival
attr title "hop count"
vector 11 LN.lnd[16] hopCount:vector ETV
attr interpolationmode none
attr recordingmode vector
attr source arrival
attr title "hop count"
vector 12 LN.lnd[12] hopCount:vector ETV
attr interpolationmode none
attr recordingmode vector
attr source arrival
attr title "hop count"
vector 13 LN.lnd[0] hopCount:vector ETV
attr interpolationmode none
attr recordingmode vector
attr source arrival
attr title "hop count"
vector 14 LN.lnd[1] hopCount:vector ETV
attr interpolationmode none
attr recordingmode vector
attr source arrival
attr title "hop count"
vector 15 LN.lnd[9] hopCount:vector ETV
attr interpolationmode none
attr recordingmode vector
attr source arrival
attr title "hop count"
vector 16 LN.lnd[5] hopCount:vector ETV
attr interpolationmode none
attr recordingmode vector
attr source arrival
attr title "hop count"
vector 17 LN.lnd[11] hopCount:vector ETV
attr interpolationmode none
attr recordingmode vector
attr source arrival
attr title "hop count"
vector 18 LN.lnd[18] hopCount:vector ETV
attr interpolationmode none
attr recordingmode vector
attr source arrival
attr title "hop count"
vector 19 LN.lnd[14] hopCount:vector ETV
attr interpolationmode none
attr recordingmode vector
attr source arrival
attr title "hop count"
0	11	1	10
0	765	76.4	13
0	3303	330.2	12
0	5283	528.2	63
0	7733	773.2	4
0	9999	999.8	49
0	11177	1117.6	1
0	14163	1416.2	25
0	15011	1501	40
0	15133	1513.2	2
0	15513	1551.2	6
0	17339	1733.8	14
0	17373	1737.2	4
0	18435	1843.4	5
0	19207	1920.6	85
0	22409	2240.8	36
0	23363	2336.2	19
0	23877	2387.6	53
0	24365	2436.4	87
0	24589	2458.8	2
0	24935	2493.4	10
0	27857	2785.6	15
0	29425	2942.4	5
0	30651	3065	2
0	33659	3365.8	10
0	34589	3458.8	1
0	34689	3468.8	1
0	36453	3645.2	7
0	41747	4174.6	30
0	44023	4402.2	4
0	44227	4422.6	18
0	48343	4834.2	50
0	49621	4962	26
0	50383	5038.2	2
0	50541	5054	27
0	51351	5135	5
0	52561	5256	12
0	52901	5290	10
0	56881	5688	45
0	57463	5746.2	13
0	58171	5817	4
0	59365	5936.4	11
0	59427	5942.6	1
0	60769	6076.8	1
0	61299	6129.8	31
0	62873	6287.2	15
0	63069	6306.8	2
0	65335	6533.4	9
0	66317	6631.6	1
0	66475	6647.4	6
0	67223	6722.2	6
0	69603	6960.2	11
0	74283	7428.2	2
0	75731	7573	99
0	76683	7668.2	6
0	78167	7816.6	55
0	78199	7819.8	4
0	81167	8116.6	69
0	82661	8266	47
0	83393	8339.2	2
0	85611	8561	2
0	90851	9085	13
0	90905	9090.4	10
0	91543	9154.2	10
0	92189	9218.8	2
0	92535	9253.4	37
0	93065	9306.4	14
0	96881	9688	4
0	98525	9852.4	1
0	99203	9920.2	5
0	100127	10012.6	28
0	101649	10164.8	30
0	103877	10387.6	53
0	103899	10389.8	1
0	106059	10605.8	16
0	106223	10622.2	1
0	106835	10683.4	64
0	106935	10693.4	2
0	112203	11220.2	35
0	114347	11434.6	1
0	115105	11510.4	1
0	115767	11576.6	1
0	118623	11862.2	4
0	119297	11929.6	3
0	120261	12026	27
0	121019	12101.8	9
0	122389	12238.8	69
0	123809	12380.8	1
0	124293	12429.2	4
0	124367	12436.6	1
0	127717	12771.6	9
0	128059	12805.8	8
0	129545	12954.4	1
0	130123	13012.2	1
0	130519	13051.8	3
0	132491	13249	45
0	134917	13491.6	2
0	137075	13707.4	11
0	138885	13888.4	177
0	143001	14300	16
0	145445	14544.4	6
0	145987	14598.6	2
0	146879	14687.8	2
0	146981	14698	6
0	147827	14782.6	73
0	148923	14892.2	28
0	149603	14960.2	4
0	151699	15169.8	34
0	152065	15206.4	34
0	152895	15289.4	5
0	154745	15474.4	6
0	157119	15711.8	7
0	157191	15719	65
0	157387	15738.6	14
0	158159	15815.8	11
0	158891	15889	38
0	158973	15897.2	3
0	161299	16129.8	12
0	163495	16349.4	1
0	164601	16460	17
0	166129	16612.8	77
0	167273	16727.2	2
0	168265	16826.4	20
0	169503	16950.2	6
0	172909	17290.8	8
0	174029	17402.8	2
0	177821	17782	10
0	179585	17958.4	6
0	180027	18002.6	22
0	181141	18114	31
0	181147	18114.6	4
0	181611	18161	65
0	183149	18314.8	1
0	183743	18374.2	9
0	184973	18497.2	1
0	185593	18559.2	2
0	186707	18670.6	8
0	187245	18724.4	2
0	187527	18752.6	4
0	192203	19220.2	1
0	194509	19450.8	4
0	194821	19482	3
0	194859	19485.8	21
0	195255	19525.4	5
0	195609	19560.8	56
0	195623	19562.2	1
0	195841	19584	14
0	197897	19789.6	7
0	199241	19924	5
0	199625	19962.4	21
0	199873	19987.2	2
0	200057	20005.6	6
0	200913	20091.2	12
0	201285	20128.4	10
0	202197	20219.6	74
0	202723	20272.2	12
0	204183	20418.2	17
0	204389	20438.8	1
0	211071	21107	28
0	211199	21119.8	2
0	212579	21257.8	20
0	214121	21412	27
0	214521	21452	8
0	215381	21538	7
0	216631	21663	23
0	216683	21668.2	2
0	221215	22121.4	40
0	222003	22200.2	14
0	222727	22272.6	6
0	225705	22570.4	1
0	228507	22850.6	6
0	231093	23109.2	34
0	231153	23115.2	7
0	236789	23678.8	4
0	237205	23720.4	47
0	237593	23759.2	5
0	238113	23811.2	5
0	238185	23818.4	10
0	240277	24027.6	7
0	240855	24085.4	13
0	244453	24445.2	95
0	244557	24455.6	6
0	244685	24468.4	2
0	244929	24492.8	3
0	244971	24497	6
0	246073	24607.2	1
0	246095	24609.4	11
0	247141	24714	6
0	249539	24953.8	1
0	251687	25168.6	14
0	252825	25282.4	97
0	253517	25351.6	1
0	256759	25675.8	1
0	258745	25874.4	16
0	259055	25905.4	7
0	261537	26153.6	2
0	264233	26423.2	9
0	264869	26486.8	69
0	267409	26740.8	17
0	272371	27237	15
0	272789	27278.8	44
0	276437	27643.6	1
0	277381	27738	14
0	278711	27871	6
0	280003	28000.2	36
0	283841	28384	1
0	284083	28408.2	12
0	286031	28603	4
0	286563	28656.2	1
0	288021	28802	62
0	288859	28885.8	69
0	291003	29100.2	12
0	291673	29167.2	56
0	292555	29255.4	1
0	293555	29355.4	1
0	295785	29578.4	63
0	296565	29656.4	7
0	299155	29915.4	19
0	302427	30242.6	2
0	303833	30383.2	2
0	305359	30535.8	46
0	306029	30602.8	2
0	307285	30728.4	19
0	307327	30732.6	1
0	308939	30893.8	5
0	309339	30933.8	5
0	314049	31404.8	1
0	314461	31446	57
0	314787	31478.6	8
0	315227	31522.6	13
0	315627	31562.6	56
0	316759	31675.8	5
0	318531	31853	17
0	318879	31887.8	9
0	318977	31897.6	1
0	319743	31974.2	8
0	319887	31988.6	2
0	319913	31991.2	16
0	320299	32029.8	15
0	321381	32138	14
0	322379	32237.8	4
0	323295	32329.4	35
0	329581	32958	4
0	329875	32987.4	81
0	332251	33225	1
0	332449	33244.8	23
0	333585	33358.4	2
0	334261	33426	4
0	334945	33494.4	16
0	336335	33633.4	17
0	338137	33813.6	10
0	338259	33825.8	27
0	338667	33866.6	8
0	338793	33879.2	48
0	340441	34044	15
0	340839	34083.8	61
0	342975	34297.4	1
0	343023	34302.2	25
0	347039	34703.8	41
0	348309	34830.8	1
0	348761	34876	12
0	348995	34899.4	5
0	350381	35038	6
0	353341	35334	4
0	353661	35366	23
0	354293	35429.2	1
0	354357	35435.6	3
0	356889	35688.8	35
0	359033	35903.2	4
0	360067	36006.6	29
0	360157	36015.6	1
0	361551	36155	8
0	362975	36297.4	1
0	363085	36308.4	28
0	367393	36739.2	9
0	367695	36769.4	31
0	370609	37060.8	41
0	371389	37138.8	8
0	374001	37400	64
0	380157	38015.6	3
0	380393	38039.2	29
0	380929	38092.8	8
0	382395	38239.4	105
0	389173	38917.2	2
0	391353	39135.2	35
0	391945	39194.4	2
0	392313	39231.2	2
0	393315	39331.4	1
0	393501	39350	4
0	393759	39375.8	10
0	395683	39568.2	63
0	396051	39605	5
0	402453	40245.2	105
0	403035	40303.4	33
0	403541	40354	19
0	403983	40398.2	61
0	405775	40577.4	53
0	407713	40771.2	13
0	416171	41617	1
0	419615	41961.4	40
0	422057	42205.6	4
0	423527	42352.6	6
0	424701	42470	2
0	425539	42553.8	34
0	428971	42897	4
0	429973	42997.2	69
0	431827	43182.6	33
0	432163	43216.2	32
0	433487	43348.6	50
0	434937	43493.6	2
0	435683	43568.2	53
0	436425	43642.4	8
0	437243	43724.2	7
0	437529	43752.8	4
0	439789	43978.8	1
0	441243	44124.2	1
0	441821	44182	16
0	443623	44362.2	2
0	443673	44367.2	4
0	443779	44377.8	1
0	445259	44525.8	6
0	445469	44546.8	7
0	445999	44599.8	34
0	446731	44673	77
0	447077	44707.6	1
0	447503	44750.2	1
0	450925	45092.4	11
0	452171	45217	30
0	452581	45258	63
0	459505	45950.4	61
0	460673	46067.2	13
0	461373	46137.2	6
0	461509	46150.8	105
0	463891	46389	25
0	467469	46746.8	3
0	468261	46826	26
0	470613	47061.2	36
0	471471	47147	18
0	474461	47446	151
0	474579	47457.8	10
0	476203	47620.2	4
0	476847	47684.6	4
0	477123	47712.2	42
0	477765	47776.4	5
0	479651	47965	5
0	480657	48065.6	41
0	481817	48181.6	1
0	482237	48223.6	1
0	482449	48244.8	1
0	482619	48261.8	6
0	484767	48476.6	35
0	485817	48581.6	3
0	486523	48652.2	14
0	486627	48662.6	27
0	486735	48673.4	8
0	487043	48704.2	1
0	489347	48934.6	40
0	489449	48944.8	8
0	490005	49000.4	31
0	490017	49001.6	10
0	490857	49085.6	5
0	491363	49136.2	35
0	495747	49574.6	12
0	496635	49663.4	8
0	496761	49676	61
0	498525	49852.4	3
0	500119	50011.8	8
0	500535	50053.4	52
0	501375	50137.4	1
0	501675	50167.4	9
0	503205	50320.4	34
0	504505	50450.4	3
0	507829	50782.8	67
0	509767	50976.6	46
0	509971	50997	14
0	513533	51353.2	20
0	514397	51439.6	2
0	517051	51705	4
0	518375	51837.4	2
0	518637	51863.6	4
0	518787	51878.6	8
0	520899	52089.8	12
0	521773	52177.2	7
0	522397	52239.6	1
0	522791	52279	5
0	523719	52371.8	3
0	525149	52514.8	2
0	527635	52763.4	26
0	527801	52780	8
0	533047	53304.6	27
0	536703	53670.2	15
0	537279	53727.8	9
0	539095	53909.4	1
0	539229	53922.8	17
0	544865	54486.4	19
0	546655	54665.4	8
0	548793	54879.2	15
0	549691	54969	57
0	554657	55465.6	1
0	554681	55468	2
0	556905	55690.4	21
0	560597	56059.6	9
0	561021	56102	23
0	561853	56185.2	52
0	563079	56307.8	51
0	563623	56362.2	18
0	564033	56403.2	11
0	564347	56434.6	13
0	566691	56669	1
0	567451	56745	69
0	567597	56759.6	4
0	568221	56822	22
0	569247	56924.6	12
0	569761	56976	30
0	570437	57043.6	10
0	572447	57244.6	19
0	574105	57410.4	2
0	577129	57712.8	89
0	578609	57860.8	11
0	581147	58114.6	119
0	582801	58280	64
0	582929	58292.8	19
0	584601	58460	2
0	585003	58500.2	1
0	585035	58503.4	7
0	586831	58683	1
0	587747	58774.6	4
0	590945	59094.4	9
0	593301	59330	55
0	593771	59377	1
0	594857	59485.6	6
0	595873	59587.2	2
0	596961	59696	1
0	597469	59746.8	2
0	599585	59958.4	2
0	599657	59965.6	5
0	603171	60317	6
0	603195	60319.4	13
0	604705	60470.4	9
0	606567	60656.6	12
0	606851	60685	10
0	607229	60722.8	6
0	608337	60833.6	5
0	612763	61276.2	12
0	614301	61430	1
0	616571	61657	2
0	616965	61696.4	1
0	618189	61818.8	12
0	618297	61829.6	11
0	618849	61884.8	39
0	619441	61944	6
0	620029	62002.8	1
0	625305	62530.4	13
0	626577	62657.6	8
0	626835	62683.4	7
0	627005	62700.4	4
0	627135	62713.4	1
0	627177	62717.6	22
0	627281	62728	70
0	629415	62941.4	4
0	631863	63186.2	4
0	636113	63611.2	54
0	636131	63613	1
0	636503	63650.2	12
0	638509	63850.8	8
0	638883	63888.2	52
0	639179	63917.8	1
0	639601	63960	5
0	640077	64007.6	1
0	640841	64084	68
0	642027	64202.6	4
0	644405	64440.4	19
0	646757	64675.6	37
0	647257	64725.6	2
0	647701	64770	4
0	647953	64795.2	15
0	648773	64877.2	13
0	649407	64940.6	1
0	651455	65145.4	18
0	652555	65255.4	17
0	654545	65454.4	9
0	655255	65525.4	12
0	657257	65725.6	7
0	658563	65856.2	2
0	658791	65879	26
0	659417	65941.6	6
0	659775	65977.4	6
0	660539	66053.8	28
0	660835	66083.4	4
0	661351	66135	8
0	661529	66152.8	6
0	662893	66289.2	26
0	665719	66571.8	2
0	666267	66626.6	2
0	666529	66652.8	9
0	668105	66810.4	1
0	669519	66951.8	1
0	670565	67056.4	13
0	671699	67169.8	4
0	672629	67262.8	1
0	674287	67428.6	27
0	674747	67474.6	23
0	675307	67530.6	17
0	675403	67540.2	18
0	675633	67563.2	16
0	676605	67660.4	40
0	677057	67705.6	10
0	681873	68187.2	7
0	683337	68333.6	4
0	683641	68364	15
0	683885	68388.4	10
0	684151	68415	20
0	684369	68436.8	18
0	687209	68720.8	20
0	688229	68822.8	63
0	691493	69149.2	1
0	691903	69190.2	1
0	692931	69293	28
0	693809	69380.8	27
0	695589	69558.8	1
0	695961	69596	13
0	696819	69681.8	4
0	697607	69760.6	5
0	698997	69899.6	22
0	700471	70047	1
0	700833	70083.2	6
0	701857	70185.6	13
0	702461	70246	12
0	704043	70404.2	13
0	706409	70640.8	12
0	708945	70894.4	2
0	710649	71064.8	28
0	711999	71199.8	9
0	712021	71202	14
0	712599	71259.8	14
0	715741	71574	12
0	716815	71681.4	1
0	718153	71815.2	14
0	720069	72006.8	14
0	720455	72045.4	20
0	723231	72323	19
0	725121	72512	2
0	727343	72734.2	11
0	728343	72834.2	15
0	732067	73206.6	11
0	733527	73352.6	1
0	734235	73423.4	22
0	734895	73489.4	6
0	735735	73573.4	12
0	737345	73734.4	9
0	737451	73745	1
0	741453	74145.2	4
0	741969	74196.8	16
0	742589	74258.8	50
0	744779	74477.8	5
0	745033	74503.2	1
0	749757	74975.6	14
0	749861	74986	7
0	752079	75207.8	17
0	752345	75234.4	14
0	753093	75309.2	18
0	753529	75352.8	6
0	755959	75595.8	1
0	758069	75806.8	22
0	758079	75807.8	2
0	758203	75820.2	4
0	760775	76077.4	24
0	761949	76194.8	1
0	762161	76216	57
0	762429	76242.8	16
0	768641	76864	21
0	771681	77168	2
0	772981	77298	5
0	773763	77376.2	11
0	773817	77381.6	3
0	776103	77610.2	2
0	776759	77675.8	1
0	777133	77713.2	6
0	777289	77728.8	9
0	778561	77856	1
0	780569	78056.8	2
0	781923	78192.2	12
0	782327	78232.6	2
0	784661	78466	13
0	785189	78518.8	55
0	785191	78519	1
0	785551	78555	20
0	786667	78666.6	19
0	788637	78863.6	12
0	789169	78916.8	41
0	789313	78931.2	40
0	789373	78937.2	20
0	790965	79096.4	20
0	791701	79170	6
0	792521	79252	1
0	794079	79407.8	7
0	794195	79419.4	1
0	797125	79712.4	12
0	797343	79734.2	3
0	798467	79846.6	6
0	800429	80042.8	83
0	800661	80066	1
0	803249	80324.8	3
0	806863	80686.2	1
0	807027	80702.6	17
0	807297	80729.6	8
0	809213	80921.2	6
0	810485	81048.4	1
0	812185	81218.4	11
0	815285	81528.4	1
0	816013	81601.2	24
0	816537	81653.6	4
0	817371	81737	8
0	817587	81758.6	3
0	818409	81840.8	2
0	819815	81981.4	4
0	823515	82351.4	8
0	824909	82490.8	15
0	827109	82710.8	4
0	827777	82777.6	12
0	828859	82885.8	1
0	828931	82893	6
0	829113	82911.2	7
0	829921	82992	54
0	830863	83086.2	15
0	830927	83092.6	40
0	831033	83103.2	9
0	831485	83148.4	3
0	831661	83166	9
0	831895	83189.4	58
0	833237	83323.6	8
0	834961	83496	38
0	835879	83587.8	11
0	838215	83821.4	2
0	842003	84200.2	23
0	842007	84200.6	3
0	846887	84688.6	1
0	847535	84753.4	6
0	849537	84953.6	39
0	851185	85118.4	1
0	851809	85180.8	2
0	855291	85529	1
0	856057	85605.6	6
0	856897	85689.6	1
0	857141	85714	4
0	858049	85804.8	12
0	860065	86006.4	26
0	860357	86035.6	19
0	860741	86074	2
0	861705	86170.4	152
0	862687	86268.6	82
0	864485	86448.4	4
0	869011	86901	1
0	869585	86958.4	3
0	870707	87070.6	2
0	871779	87177.8	2
0	872787	87278.6	126
0	873855	87385.4	8
0	883097	88309.6	1
0	883857	88385.6	37
0	884059	88405.8	169
0	884349	88434.8	1
0	887277	88727.6	1
0	889325	88932.4	5
0	889879	88987.8	6
0	891909	89190.8	27
0	892355	89235.4	4
0	892705	89270.4	6
0	893045	89304.4	47
0	895731	89573	11
0	896563	89656.2	10
0	896933	89693.2	47
0	898889	89888.8	1
0	899299	89929.8	1
0	901209	90120.8	2
0	902921	90292	11
0	903121	90312	49
0	908405	90840.4	1
0	909985	90998.4	11
0	910739	91073.8	7
0	912329	91232.8	4
0	914005	91400.4	12
0	921829	92182.8	2
0	923989	92398.8	1
0	925147	92514.6	3
0	927695	92769.4	55
0	927763	92776.2	58
0	928157	92815.6	2
0	929663	92966.2	6
0	930085	93008.4	1
0	932161	93216	25
0	936063	93606.2	22
0	936423	93642.2	6
0	936463	93646.2	10
0	937473	93747.2	8
0	938177	93817.6	10
0	938459	93845.8	22
0	939815	93981.4	36
0	939953	93995.2	35
0	945043	94504.2	3
0	945489	94548.8	1
0	946151	94615	4
0	948207	94820.6	25
0	948753	94875.2	2
0	952343	95234.2	18
0	952469	95246.8	1
0	954467	95446.6	1
0	955361	95536	13
0	957809	95780.8	1
0	959315	95931.4	26
0	960137	96013.6	1
0	964513	96451.2	3
0	964663	96466.2	1
0	964943	96494.2	54
0	968045	96804.4	39
0	969251	96925	9
0	973257	97325.6	6
0	974121	97412	41
0	974149	97414.8	1
0	974777	97477.6	27
0	976113	97611.2	6
0	978111	97811	1
0	979545	97954.4	27
0	979647	97964.6	9
0	985405	98540.4	28
0	985589	98558.8	6
0	986957	98695.6	3
0	987835	98783.4	7
0	988737	98873.6	4
0	990469	99046.8	24
0	990949	99094.8	13
0	991133	99113.2	4
0	993989	99398.8	27
0	995011	99501	2
0	995059	99505.8	3
0	999091	99909	26
0	999917	99991.6	22
0	1002047	100204.6	90
0	1003245	100324.4	34
0	1004317	100431.6	13
0	1006523	100652.2	18
0	1009327	100932.6	32
0	1009491	100949	25
0	1010017	101001.6	35
0	1011435	101143.4	3
0	1011689	101168.8	77
0	1011707	101170.6	3
0	1012877	101287.6	1
0	1013137	101313.6	74
0	1015783	101578.2	24
0	1015979	101597.8	37
0	1018875	101887.4	33
0	1022861	102286	1
0	1025197	102519.6	3
0	1025341	102534	11
0	1028007	102800.6	36
0	1028417	102841.6	1
0	1030889	103088.8	8
0	1033819	103381.8	14
0	1035561	103556	15
0	1036185	103618.4	4
0	1038587	103858.6	8
0	1041037	104103.6	15
0	1041393	104139.2	11
0	1042259	104225.8	21
0	1045183	104518.2	1
0	1046649	104664.8	97
0	1046717	104671.6	1
0	1046831	104683	1
0	1048491	104849	2
0	1049903	104990.2	15
0	1051035	105103.4	1
0	1054201	105420	30
0	1054709	105470.8	45
0	1056851	105685	2
0	1057413	105741.2	35
0	1058969	105896.8	30
0	1061657	106165.6	13
0	1064409	106440.8	3
0	1065333	106533.2	23
0	1066475	106647.4	4
0	1067623	106762.2	18
0	1069991	106999	8
0	1071895	107189.4	18
0	1071997	107199.6	88
0	1073817	107381.6	3
0	1074899	107489.8	56
0	1076931	107693	35
0	1077279	107727.8	1
0	1079711	107971	4
0	1081019	108101.8	35
0	1081195	108119.4	70
0	1081229	108122.8	22
0	1083273	108327.2	27
0	1083481	108348	11
0	1083541	108354	40
0	1083655	108365.4	58
0	1084547	108454.6	145
0	1084621	108462	10
0	1086367	108636.6	7
0	1087571	108757	8
0	1088221	108822	46
0	1090519	109051.8	7
0	1092207	109220.6	68
0	1094775	109477.4	41
0	1094941	109494	18
0	1095911	109591	7
0	1097847	109784.6	1
0	1098163	109816.2	46
0	1098933	109893.2	97
0	1099187	109918.6	45
0	1100243	110024.2	1
0	1104165	110416.4	73
0	1104693	110469.2	1
0	1105447	110544.6	2
0	1106155	110615.4	62
0	1106925	110692.4	26
0	1107241	110724	38
0	1107525	110752.4	38
0	1107923	110792.2	2
0	1110523	111052.2	18
0	1111447	111144.6	24
0	1112227	111222.6	1
0	1112535	111253.4	2
0	1113577	111357.6	18
0	1117889	111788.8	5
0	1119831	111983	12
0	1120423	112042.2	70
0	1124177	112417.6	3
0	1125233	112523.2	7
0	1125411	112541	8
0	1125961	112596	1
0	1127659	112765.8	2
0	1127921	112792	1
0	1130763	113076.2	1
0	1133225	113322.4	4
0	1133737	113373.6	6
0	1133981	113398	37
0	1136489	113648.8	20
0	1136509	113650.8	1
0	1138353	113835.2	1
0	1138957	113895.6	1
0	1139055	113905.4	1
0	1139103	113910.2	4
0	1140139	114013.8	26
0	1141441	114144	14
0	1143839	114383.8	1
0	1144569	114456.8	9
0	1145575	114557.4	37
0	1147709	114770.8	125
0	1150583	115058.2	6
0	1157193	115719.2	14
0	1162657	116265.6	60
0	1163941	116394	34
0	1166887	116688.6	1
0	1168807	116880.6	24
0	1170707	117070.6	25
0	1174103	117410.2	20
0	1176933	117693.2	3
0	1181099	118109.8	1
0	1182055	118205.4	35
0	1186987	118698.6	25
0	1188447	118844.6	2
0	1189811	118981	60
0	1190711	119071	3
0	1190991	119099	12
0	1193711	119371	7
0	1193755	119375.4	16
0	1194057	119405.6	12
0	1195961	119596	2
0	1196207	119620.6	2
0	1198237	119823.6	3
0	1200181	120018	10
0	1200493	120049.2	15
0	1202013	120201.2	27
0	1202081	120208	42
0	1202631	120263	24
0	1205469	120546.8	37
0	1205591	120559	13
0	1206409	120640.8	16
0	1207783	120778.2	4
0	1210035	121003.4	14
0	1210983	121098.2	3
0	1212349	121234.8	17
0	1213811	121381	29
0	1219907	121990.6	9
0	1220721	122072	28
0	1221483	122148.2	60
0	1222799	122279.8	8
0	1225185	122518.4	2
0	1225339	122533.8	113
0	1225971	122597	19
0	1226831	122683	27
0	1227093	122709.2	1
0	1229807	122980.6	55
0	1230735	123073.4	17
0	1231861	123186	5
0	1234005	123400.4	13
0	1238529	123852.8	7
0	1240537	124053.6	4
0	1240609	124060.8	27
0	1243415	124341.4	44
0	1247011	124701	1
0	1248947	124894.6	37
0	1252155	125215.4	17
0	1256461	125646	5
0	1257749	125774.8	22
0	1258111	125811	39
0	1261641	126164	11
0	1263093	126309.2	8
0	1263751	126375	4
0	1268245	126824.4	33
0	1268275	126827.4	14
0	1270637	127063.6	2
0	1273347	127334.6	37
0	1274695	127469.4	37
0	1274921	127492	1
0	1275043	127504.2	34
0	1275407	127540.6	14
0	1275709	127570.8	78
0	1278227	127822.6	1
0	1278231	127823	1
0	1279777	127977.6	1
0	1282631	128263	1
0	1284301	128430	1
0	1284559	128455.8	3
0	1284765	128476.4	5
0	1285205	128520.4	2
0	1285449	128544.8	14
0	1286877	128687.6	75
0	1287855	128785.4	1
0	1289239	128923.8	2
0	1289525	128952.4	3
0	1290685	129068.4	5
0	1290695	129069.4	1
0	1292509	129250.8	3
0	1293011	129301	1
0	1293769	129376.8	16
0	1297369	129736.8	6
0	1299909	129990.8	6
0	1301795	130179.4	7
0	1302173	130217.2	1
0	1306557	130655.6	52
0	1306855	130685.4	53
0	1306881	130688	4
0	1306989	130698.8	11
0	1313471	131347	3
0	1314395	131439.4	2
0	1315311	131531	21
0	1315767	131576.6	2
0	1316223	131622.2	6
0	1316531	131653	2
0	1318423	131842.2	7
0	1319183	131918.2	1
0	1319311	131931	36
0	1319635	131963.4	1
0	1321215	132121.4	77
0	1321257	132125.6	22
0	1329611	132961	1
0	1331987	133198.6	101
0	1336513	133651.2	2
0	1340741	134074	12
0	1342435	134243.4	2
0	1342607	134260.6	11
0	1343185	134318.4	1
0	1345165	134516.4	2
0	1347047	134704.6	54
0	1347431	134743	17
0	1348165	134816.4	1
0	1348539	134853.8	35
0	1349091	134909	50
0	1349789	134978.8	1
0	1353987	135398.6	11
0	1358717	135871.6	63
0	1360629	136062.8	37
0	1361595	136159.4	33
0	1362055	136205.4	4
0	1362529	136252.8	12
0	1363385	136338.4	4
0	1364593	136459.2	6
0	1364929	136492.8	12
0	1365759	136575.8	2
0	1370809	137080.8	47
0	1370845	137084.4	34
0	1371457	137145.6	28
0	1372321	137232	2
0	1372469	137246.8	2
0	1372645	137264.4	42
0	1373845	137384.4	8
0	1374137	137413.6	26
0	1374979	137497.8	56
0	1375963	137596.2	1
0	1376761	137676	1
0	1377867	137786.6	98
0	1378203	137820.2	2
0	1378457	137845.6	10
0	1379547	137954.6	1
0	1384673	138467.2	11
0	1385585	138558.4	12
0	1385939	138593.8	1
0	1389081	138908	9
0	1390117	139011.6	8
0	1391135	139113.4	1
0	1392109	139210.8	4
0	1393817	139381.6	1
0	1395371	139537	2
0	1395781	139578	3
0	1396275	139627.4	95
0	1398365	139836.4	3
0	1398771	139877	9
0	1403405	140340.4	10
0	1403801	140380	76
0	1403997	140399.6	22
0	1404061	140406	4
0	1404285	140428.4	5
0	1406653	140665.2	4
0	1413869	141386.8	31
0	1414457	141445.6	33
0	1417039	141703.8	12
0	1417493	141749.2	59
0	1423103	142310.2	6
0	1424841	142484	41
0	1430923	143092.2	17
0	1432883	143288.2	38
0	1434077	143407.6	4
0	1434705	143470.4	30
0	1439681	143968	22
0	1439777	143977.6	2
0	1440653	144065.2	11
0	1441375	144137.4	17
0	1442157	144215.6	6
0	1442781	144278	1
0	1443945	144394.4	3
0	1444685	144468.4	13
0	1445933	144593.2	12
0	1446889	144688.8	10
0	1449263	144926.2	1
0	1450397	145039.6	22
0	1450541	145054	35
0	1451453	145145.2	5
0	1452417	145241.6	1
0	1452589	145258.8	9
0	1452973	145297.2	42
0	1453091	145309	24
0	1456383	145638.2	1
0	1456433	145643.2	15
0	1458169	145816.8	1
0	1458715	145871.4	10
0	1460289	146028.8	16
0	1460619	146061.8	4
0	1461291	146129	14
0	1463267	146326.6	11
0	1467277	146727.6	4
0	1467523	146752.2	2
0	1467763	146776.2	8
0	1470871	147087	25
0	1471467	147146.6	1
0	1472237	147223.6	14
0	1472395	147239.4	1
0	1472855	147285.4	16
0	1473345	147334.4	4
0	1474751	147475	14
0	1475709	147570.8	11
0	1476401	147640	24
0	1476473	147647.2	24
0	1477683	147768.2	10
0	1480471	148047	2
0	1480595	148059.4	1
0	1480661	148066	6
0	1482925	148292.4	17
0	1485807	148580.6	1
0	1486541	148654	1
0	1487347	148734.6	2
0	1489059	148905.8	16
0	1489405	148940.4	17
0	1490175	149017.4	8
0	1491039	149103.8	7
0	1491179	149117.8	69
0	1491271	149127	9
0	1492625	149262.4	11
0	1495475	149547.4	2
0	1495949	149594.8	2
0	1496021	149602	8
0	1497665	149766.4	70
0	1498025	149802.4	4
0	1499491	149949	1
0	1502315	150231.4	100
0	1502361	150236	6
0	1503717	150371.6	1
0	1503799	150379.8	16
0	1506805	150680.4	61
0	1509573	150957.2	11
0	1510141	151014	2
0	1510569	151056.8	30
0	1512393	151239.2	46
0	1514243	151424.2	9
0	1514351	151435	16
0	1514491	151449	1
0	1514829	151482.8	1
0	1515353	151535.2	3
0	1515651	151565	1
0	1517441	151744	10
0	1517547	151754.6	96
0	1519229	151922.8	2
0	1520035	152003.4	2
0	1524089	152408.8	16
0	1524915	152491.4	1
0	1525135	152513.4	17
0	1526943	152694.2	102
0	1528189	152818.8	36
0	1528989	152898.8	1
0	1529307	152930.6	59
0	1530147	153014.6	38
0	1530599	153059.8	6
0	1531173	153117.2	1
0	1535055	153505.4	2
0	1536021	153602	18
0	1538437	153843.6	10
0	1539201	153920	40
0	1539947	153994.6	32
0	1543257	154325.6	20
0	1544325	154432.4	7
0	1544433	154443.2	4
0	1546927	154692.6	12
0	1548277	154827.6	1
0	1548417	154841.6	29
0	1548971	154897	62
0	1549045	154904.4	5
0	1549285	154928.4	191
0	1549495	154949.4	19
0	1549663	154966.2	36
0	1551951	155195	44
0	1552857	155285.6	15
0	1553073	155307.2	6
0	1554823	155482.2	13
0	1554833	155483.2	1
0	1555175	155517.4	4
0	1555951	155595	2
0	1557293	155729.2	20
0	1557589	155758.8	2
0	1558169	155816.8	28
0	1564579	156457.8	3
0	1565771	156577	23
0	1566591	156659	8
0	1566879	156687.8	27
0	1568407	156840.6	15
0	1568673	156867.2	2
0	1569017	156901.6	15
0	1570017	157001.6	6
0	1572115	157211.4	9
0	1572877	157287.6	14
0	1574467	157446.6	2
0	1575679	157567.8	1
0	1578561	157856	1
0	1579003	157900.2	1
0	1580891	158089	12
0	1580945	158094.4	15
0	1581665	158166.4	14
0	1587673	158767.2	20
0	1588167	158816.6	43
0	1589299	158929.8	2
0	1589507	158950.6	48
0	1591397	159139.6	2
0	1592445	159244.4	14
0	1593453	159345.2	1
0	1595121	159512	75
0	1597773	159777.2	14
0	1598719	159871.8	12
0	1600789	160078.8	38
0	1600867	160086.6	4
0	1601049	160104.8	2
0	1601473	160147.2	13
0	1601633	160163.2	13
0	1601945	160194.4	83
0	1604397	160439.6	27
0	1608199	160819.8	15
0	1608345	160834.4	21
0	1609313	160931.2	1
0	1610843	161084.2	39
0	1612095	161209.4	6
0	1614085	161408.4	5
0	1614303	161430.2	13
0	1617671	161767	22
0	1625941	162594	5
0	1627749	162774.8	10
0	1628533	162853.2	13
0	1630377	163037.6	1
0	1630947	163094.6	12
0	1631079	163107.8	66
0	1631739	163173.8	51
0	1632605	163260.4	14
0	1638505	163850.4	4
0	1641387	164138.6	21
0	1641561	164156	4
0	1641665	164166.4	27
0	1641775	164177.4	33
0	1641823	164182.2	3
0	1644475	164447.4	24
0	1646031	164603	24
0	1646257	164625.6	2
0	1647441	164744	6
0	1649171	164917	3
0	1650705	165070.4	47
0	1654401	165440	15
0	1657317	165731.6	3
0	1657333	165733.2	4
0	1658009	165800.8	22
0	1658931	165893	4
0	1660107	166010.6	2
0	1666631	166663	4
0	1667091	166709	19
0	1667357	166735.6	23
0	1667859	166785.8	3
0	1670503	167050.2	4
0	1670699	167069.8	12
0	1671031	167103	1
0	1673751	167375	29
0	1673961	167396	1
0	1674441	167444	1
0	1675245	167524.4	7
0	1675629	167562.8	22
0	1676289	167628.8	20
0	1676985	167698.4	1
0	1678695	167869.4	65
0	1679261	167926	32
0	1680665	168066.4	34
0	1681157	168115.6	2
0	1681695	168169.4	25
0	1682005	168200.4	18
0	1683743	168374.2	4
0	1684141	168414	88
0	1684411	168441	38
0	1685327	168532.6	4
0	1686347	168634.6	21
0	1689987	168998.6	6
0	1690523	169052.2	3
0	1691593	169159.2	18
0	1693479	169347.8	14
0	1694399	169439.8	33
0	1694881	169488	57
0	1695529	169552.8	18
0	1696415	169641.4	1
0	1696851	169685	39
0	1698087	169808.6	52
0	1699863	169986.2	18
0	1700665	170066.4	1
0	1701401	170140	2
0	1701527	170152.6	1
0	1701789	170178.8	57
0	1703755	170375.4	3
0	1705217	170521.6	1
0	1708645	170864.4	8
0	1709219	170921.8	20
0	1711259	171125.8	1
0	1711449	171144.8	3
0	1711565	171156.4	3
0	1711999	171199.8	67
0	1713695	171369.4	4
0	1714439	171443.8	68
0	1717887	171788.6	6
0	1718445	171844.4	3
0	1719021	171902	32
0	1720661	172066	6
0	1720881	172088	16
0	1721039	172103.8	45
0	1724955	172495.4	11
0	1725561	172556	5
0	1729235	172923.4	20
0	1730357	173035.6	10
0	1730439	173043.8	8
0	1730513	173051.2	4
0	1731751	173175	12
0	1733845	173384.4	12
0	1734493	173449.2	21
0	1736817	173681.6	15
0	1736847	173684.6	4
0	1737855	173785.4	2
0	1739271	173927	4
0	1741731	174173	2
0	1743291	174329	25
0	1743963	174396.2	4
0	1745923	174592.2	3
0	1745963	174596.2	8
0	1746471	174647	1
0	1749469	174946.8	1
0	1751071	175107	13
0	1753669	175366.8	13
0	1754995	175499.4	14
0	1756151	175615	4
0	1756211	175621	9
0	1758145	175814.4	6
0	1758569	175856.8	39
0	1759557	175955.6	12
0	1759603	175960.2	1
0	1762203	176220.2	4
0	1764559	176455.8	41
0	1764747	176474.6	14
0	1765561	176556	5
0	1772795	177279.4	1
0	1773233	177323.2	20
0	1776069	177606.8	6
0	1776475	177647.4	18
0	1777235	177723.4	6
0	1777493	177749.2	1
0	1778931	177893	17
0	1780705	178070.4	2
0	1782073	178207.2	17
0	1784263	178426.2	16
0	1784947	178494.6	30
0	1788055	178805.4	53
0	1788291	178829	10
0	1790359	179035.8	25
0	1790817	179081.6	1
0	1791287	179128.6	32
0	1791667	179166.6	2
0	1791999	179199.8	1
0	1793051	179305	3
0	1793173	179317.2	6
0	1793623	179362.2	10
0	1793869	179386.8	15
0	1796827	179682.6	9
0	1799459	179945.8	158
0	1800101	180010	6
0	1805233	180523.2	6
0	1805621	180562	35
0	1805721	180572	7
0	1807995	180799.4	2
0	1811465	181146.4	11
0	1811717	181171.6	136
0	1813173	181317.2	51
0	1814571	181457	5
0	1814903	181490.2	82
0	1815059	181505.8	20
0	1815187	181518.6	18
0	1817023	181702.2	6
0	1818659	181865.8	1
0	1818765	181876.4	69
0	1819453	181945.2	34
0	1822127	182212.6	1
0	1823933	182393.2	31
0	1825203	182520.2	46
0	1825533	182553.2	34