version 3
run General-110-20230611-05:41:40-416617
attr configname General
attr datetime 20230611-05:41:40
attr datetimef 20230611-054140
attr experiment General
attr inifile omnetpp.ini
attr iterationvars $N=85
attr iterationvarsd N=85
attr iterationvarsf N=85-
attr measurement $N=85
attr network LN
attr processid 416617
attr repetition 2
attr replication #2
attr resultdir results
attr runnumber 110
attr seedset 110
itervar N 85
config network LN
config sim-time-limit 250000s
config **.tic[*].hopCount.result-recording-modes +vector
config *.numCentralNodes 85
config repeat 4

vector 0 LN.lnd[1] hopCount:vector ETV
attr interpolationmode none
attr recordingmode vector
attr source arrival
attr title "hop count"
vector 1 LN.lnd[11] hopCount:vector ETV
attr interpolationmode none
attr recordingmode vector
attr source arrival
attr title "hop count"
vector 2 LN.lnd[8] hopCount:vector ETV
attr interpolationmode none
attr recordingmode vector
attr source arrival
attr title "hop count"
vector 3 LN.lnd[2] hopCount:vector ETV
attr interpolationmode none
attr recordingmode vector
attr source arrival
attr title "hop count"
vector 4 LN.lnd[6] hopCount:vector ETV
attr interpolationmode none
attr recordingmode vector
attr source arrival
attr title "hop count"
vector 5 LN.lnd[12] hopCount:vector ETV
attr interpolationmode none
attr recordingmode vector
attr source arrival
attr title "hop count"
vector 6 LN.lnd[15] hopCount:vector ETV
attr interpolationmode none
attr recordingmode vector
attr source arrival
attr title "hop count"
vector 7 LN.lnd[4] hopCount:vector ETV
attr interpolationmode none
attr recordingmode vector
attr source arrival
attr title "hop count"
vector 8 LN.lnd[14] hopCount:vector ETV
attr interpolationmode none
attr recordingmode vector
attr source arrival
attr title "hop count"
vector 9 LN.lnd[7] hopCount:vector ETV
attr interpolationmode none
attr recordingmode vector
attr source arrival
attr title "hop count"
vector 10 LN.lnd[0] hopCount:vector ETV
attr interpolationmode none
attr recordingmode vector
attr source arrival
attr title "hop count"
vector 11 LN.lnd[16] hopCount:vector ETV
attr interpolationmode none
attr recordingmode vector
attr source arrival
attr title "hop count"
vector 12 LN.lnd[17] hopCount:vector ETV
attr interpolationmode none
attr recordingmode vector
attr source arrival
attr title "hop count"
vector 13 LN.lnd[3] hopCount:vector ETV
attr interpolationmode none
attr recordingmode vector
attr source arrival
attr title "hop count"
vector 14 LN.lnd[9] hopCount:vector ETV
attr interpolationmode none
attr recordingmode vector
attr source arrival
attr title "hop count"
vector 15 LN.lnd[13] hopCount:vector ETV
attr interpolationmode none
attr recordingmode vector
attr source arrival
attr title "hop count"
vector 16 LN.lnd[5] hopCount:vector ETV
attr interpolationmode none
attr recordingmode vector
attr source arrival
attr title "hop count"
vector 17 LN.lnd[18] hopCount:vector ETV
attr interpolationmode none
attr recordingmode vector
attr source arrival
attr title "hop count"
vector 18 LN.lnd[19] hopCount:vector ETV
attr interpolationmode none
attr recordingmode vector
attr source arrival
attr title "hop count"
vector 19 LN.lnd[10] hopCount:vector ETV
attr interpolationmode none
attr recordingmode vector
attr source arrival
attr title "hop count"
0	27	2.6	26
0	1889	188.8	166
0	3603	360.2	6
0	4433	443.2	54
0	6293	629.2	122
0	6791	679	40
0	8709	870.8	15
0	9743	974.2	19
0	11145	1114.4	10
0	13653	1365.2	26
0	14235	1423.4	59
0	17729	1772.8	2
0	18325	1832.4	223
0	18565	1856.4	26
0	18567	1856.6	1
0	24835	2483.4	39
0	29341	2934	70
0	30113	3011.2	62
0	30403	3040.2	6
0	30847	3084.6	16
0	31459	3145.8	29
0	32639	3263.8	3
0	33059	3305.8	72
0	34045	3404.4	93
0	36351	3635	190
0	39211	3921	5
0	39955	3995.4	61
0	40861	4086	23
0	41587	4158.6	365
0	43515	4351.4	12
0	43967	4396.6	52
0	45181	4518	13
0	45829	4582.8	49
0	46189	4618.8	80
0	47699	4769.8	147
0	48271	4827	70
0	51401	5140	27
0	51673	5167.2	197
0	51775	5177.4	81
0	51921	5192	102
0	55681	5568	45
0	55981	5598	92
0	57443	5744.2	184
0	60925	6092.4	80
0	64749	6474.8	51
0	65795	6579.4	35
0	67583	6758.2	55
0	68719	6871.8	357
0	68751	6875	15
0	71471	7147	38
0	78785	7878.4	229
0	80245	8024.4	11
0	80463	8046.2	62
0	81843	8184.2	47
0	83973	8397.2	60
0	85443	8544.2	11
0	89067	8906.6	34
0	89431	8943	40
0	90219	9021.8	125
0	91573	9157.2	80
0	93085	9308.4	16
0	95683	9568.2	162
0	95881	9588	176
0	96413	9641.2	293
0	98687	9868.6	172
0	100519	10051.8	9
0	100883	10088.2	7
0	101303	10130.2	63
0	104773	10477.2	191
0	104777	10477.6	2
0	105681	10568	65
0	107563	10756.2	51
0	107719	10771.8	58
0	110259	11025.8	7
0	111483	11148.2	18
0	111831	11183	114
0	115787	11578.6	160
0	115961	11596	143
0	117299	11729.8	4
0	119463	11946.2	5
0	122949	12294.8	184
0	123019	12301.8	32
0	123181	12318	141
0	123381	12338	20
0	124191	12419	44
0	127023	12702.2	200
0	127527	12752.6	170
0	127895	12789.4	82
0	130047	13004.6	2
0	131213	13121.2	121
0	131771	13177	66
0	133449	13344.8	43
0	135819	13581.8	57
0	139149	13914.8	84
0	139347	13934.6	7
0	140953	14095.2	83
0	141135	14113.4	66
0	142651	14265	36
0	143411	14341	115
0	143827	14382.6	237
0	148821	14882	26
0	148877	14887.6	2
0	149167	14916.6	45
0	153727	15372.6	4
0	154003	15400.2	41
0	154105	15410.4	7
0	155673	15567.2	39
0	156513	15651.2	39
0	157075	15707.4	93
0	160411	16041	18
0	160859	16085.8	29
0	161219	16121.8	3
0	161749	16174.8	62
0	162109	16210.8	166
0	162187	16218.6	67
0	162675	16267.4	5
0	164291	16429	115
0	173167	17316.6	264
0	174005	17400.4	15
0	175743	17574.2	6
0	175861	17586	15
0	175895	17589.4	10
0	175985	17598.4	8
0	176793	17679.2	146
0	178029	17802.8	42
0	179553	17955.2	19
0	179711	17971	27
0	180679	18067.8	107
0	181221	18122	28
0	181603	18160.2	55
0	182133	18213.2	110
0	182195	18219.4	3
0	182811	18281	123
0	184979	18497.8	174
0	189427	18942.6	201
0	190483	19048.2	49
0	191943	19194.2	48
0	192487	19248.6	33
0	193265	19326.4	31
0	193441	19344	5
0	195023	19502.2	50
0	195295	19529.4	79
0	196571	19657	19
0	198487	19848.6	5
0	198881	19888	27
0	199333	19933.2	66
0	199957	19995.6	135
0	200677	20067.6	155
0	202075	20207.4	151
0	203057	20305.6	45
0	203623	20362.2	3
0	203945	20394.4	3
0	204545	20454.4	195
0	204727	20472.6	22
0	208607	20860.6	497
0	213087	21308.6	323
0	214679	21467.8	187
0	216741	21674	116
0	217769	21776.8	155
0	219019	21901.8	4
0	219653	21965.2	183
0	221641	22164	39
0	223595	22359.4	182
0	224217	22421.6	19
0	224333	22433.2	6
0	225991	22599	17
0	226951	22695	64
0	227419	22741.8	411
0	228289	22828.8	8
0	228877	22887.6	66
0	229325	22932.4	26
0	230025	23002.4	61
0	231489	23148.8	148
0	231645	23164.4	72
0	231701	23170	4
0	231827	23182.6	63
0	232525	23252.4	17
0	232689	23268.8	6
0	236399	23639.8	182
0	237573	23757.2	9
0	238959	23895.8	114
0	238977	23897.6	1
0	239437	23943.6	8
0	242129	24212.8	518
0	243351	24335	130
0	245367	24536.6	122
0	245621	24562	34
0	246051	24605	15
0	248021	24802	61
0	249047	24904.6	164
0	249751	24975	219
0	252881	25288	77
0	253039	25303.8	17
0	253159	25315.8	25
0	253553	25355.2	4
0	255829	25582.8	4
0	256083	25608.2	202
0	257475	25747.4	25
0	257965	25796.4	29
0	258217	25821.6	241
0	261087	26108.6	55
0	261633	26163.2	1
0	262273	26227.2	89
0	262593	26259.2	299
0	263225	26322.4	10
0	267373	26737.2	31
0	267445	26744.4	16
0	269467	26946.6	242
0	270959	27095.8	105
0	272337	27233.6	90
0	273153	27315.2	34
0	273755	27375.4	32
0	274687	27468.6	1
0	275519	27551.8	38
0	275915	27591.4	323
0	277415	27741.4	14
0	279323	27932.2	31
0	280201	28020	21
0	280577	28057.6	131
0	282259	28225.8	200
0	283051	28305	43
0	285319	28531.8	15
0	289069	28906.8	65
0	289455	28945.4	195
0	289905	28990.4	112
0	290175	29017.4	26
0	291953	29195.2	23
0	293513	29351.2	20
0	295991	29599	311
0	296201	29620	43
0	299887	29988.6	23
0	306207	30620.6	137
0	307867	30786.6	17
0	311945	31194.4	53
0	312589	31258.8	18
0	313999	31399.8	437
0	314185	31418.4	17
0	314783	31478.2	141
0	317735	31773.4	58
0	318735	31873.4	10
0	318891	31889	139
0	321919	32191.8	82
0	322673	32267.2	68
0	324555	32455.4	95
0	325203	32520.2	163
0	326989	32698.8	5
0	327981	32798	205
0	328325	32832.4	9
0	329605	32960.4	173
0	334339	33433.8	109
0	335191	33519	249
0	338009	33800.8	29
0	339869	33986.8	71
0	342021	34202	262
0	343173	34317.2	53
0	344393	34439.2	11
0	345463	34546.2	232
0	346777	34677.6	11
0	347511	34751	126
0	348663	34866.2	31
0	349265	34926.4	15
0	351819	35181.8	6
0	352453	35245.2	27
0	354109	35410.8	234
0	354383	35438.2	273
0	355789	35578.8	56
0	356399	35639.8	28
0	359091	35909	60
0	360743	36074.2	54
0	361269	36126.8	4
0	362483	36248.2	30
0	363853	36385.2	10
0	364591	36459	5
0	365133	36513.2	228
0	365759	36575.8	79
0	367601	36760	31
0	370219	37021.8	321
0	370631	37063	75
0	371739	37173.8	36
0	372973	37297.2	135
0	373433	37343.2	89
0	380069	38006.8	205
0	380177	38017.6	18
0	380949	38094.8	84
0	381599	38159.8	10
0	382057	38205.6	108
0	382421	38242	128
0	385211	38521	7
0	386447	38644.6	84
0	392039	39203.8	46
0	394217	39421.6	87
0	395129	39512.8	40
0	395463	39546.2	3
0	395589	39558.8	84
0	396785	39678.4	164
0	398337	39833.6	54
0	399689	39968.8	257
0	402909	40290.8	12
0	404487	40448.6	193
0	405689	40568.8	74
0	411689	41168.8	34
0	412145	41214.4	15
0	418293	41829.2	159
0	419445	41944.4	242
0	420419	42041.8	123
0	421017	42101.6	311
0	423743	42374.2	172
0	424009	42400.8	71
0	425061	42506	21
0	428761	42876	30
0	429627	42962.6	106
0	430915	43091.4	26
0	431761	43176	51
0	434575	43457.4	92
0	435337	43533.6	99
0	440399	44039.8	18
0	441971	44197	10
0	443405	44340.4	12
0	443841	44384	15
0	444009	44400.8	40
0	445115	44511.4	10
0	445811	44581	36
0	446939	44693.8	75
0	448253	44825.2	100
0	449159	44915.8	51
0	450557	45055.6	20
0	453211	45321	3
0	453601	45360	2
0	454077	45407.6	17
0	454795	45479.4	75
0	455543	45554.2	43
0	455989	45598.8	27
0	458465	45846.4	93
0	460599	46059.8	159
0	460901	46090	1
0	462135	46213.4	185
0	465335	46533.4	611
0	465841	46584	24
0	467697	46769.6	146
0	468271	46827	77
0	468283	46828.2	9
0	469867	46986.6	106
0	470111	47011	18
0	470703	47070.2	225
0	472625	47262.4	1
0	475743	47574.2	79
0	476095	47609.4	142
0	476461	47646	14
0	476701	47670	227
0	477903	47790.2	74
0	478133	47813.2	115
0	478575	47857.4	245
0	479623	47962.2	44
0	480307	48030.6	1
0	480669	48066.8	189
0	481201	48120	270
0	482213	48221.2	85
0	482271	48227	14
0	482811	48281	133
0	485165	48516.4	3
0	486879	48687.8	6
0	486905	48690.4	13
0	487105	48710.4	34
0	488787	48878.6	120
0	489449	48944.8	62
0	489893	48989.2	4
0	490551	49055	56
0	490661	49066	94
0	492173	49217.2	18
0	493781	49378	37
0	494051	49405	52
0	495337	49533.6	140
0	496249	49624.8	34
0	497077	49707.6	33
0	498737	49873.6	61
0	501365	50136.4	35
0	501967	50196.6	118
0	504589	50458.8	73
0	504971	50497	169
0	505705	50570.4	2
0	506825	50682.4	30
0	508065	50806.4	128
0	508637	50863.6	73
0	510257	51025.6	188
0	511111	51111	25
0	512163	51216.2	68
0	513021	51302	6
0	513771	51377	163
0	513931	51393	47
0	514471	51447	133
0	514579	51457.8	5
0	515955	51595.4	2
0	516985	51698.4	159
0	519175	51917.4	112
0	521279	52127.8	40
0	521969	52196.8	174
0	524995	52499.4	15
0	528273	52827.2	276
0	528515	52851.4	88
0	534603	53460.2	70
0	535463	53546.2	53
0	537883	53788.2	163
0	541229	54122.8	93
0	543013	54301.2	12
0	544635	54463.4	2
0	544855	54485.4	146
0	552303	55230.2	87
0	552471	55247	32
0	552907	55290.6	35
0	553853	55385.2	240
0	555653	55565.2	50
0	556021	55602	13
0	557933	55793.2	511
0	560291	56029	86
0	565149	56514.8	156
0	565243	56524.2	31
0	566015	56601.4	108
0	567581	56758	113
0	571985	57198.4	68
0	572795	57279.4	18
0	574649	57464.8	232
0	574923	57492.2	78
0	575117	57511.6	153
0	575455	57545.4	39
0	576759	57675.8	79
0	583219	58321.8	288
0	585289	58528.8	33
0	586363	58636.2	38
0	586377	58637.6	9
0	586513	58651.2	19
0	587345	58734.4	189
0	588109	58810.8	19
0	591023	59102.2	8
0	591289	59128.8	13
0	591917	59191.6	1
0	593409	59340.8	170
0	597509	59750.8	10
0	597557	59755.6	13
0	606461	60646	126
0	607371	60737	11
0	607765	60776.4	63
0	609467	60946.6	112
0	611051	61105	343
0	611621	61162	64
0	612269	61226.8	21
0	612649	61264.8	4
0	615015	61501.4	126
0	615835	61583.4	137
0	617769	61776.8	372
0	618227	61822.6	2
0	620663	62066.2	47
0	623175	62317.4	8
0	625687	62568.6	5
0	626033	62603.2	155
0	626141	62614	14
0	626835	62683.4	71
0	627593	62759.2	76
0	628045	62804.4	14
0	628821	62882	86
0	628883	62888.2	25
0	630231	63023	35
0	630789	63078.8	176
0	632577	63257.6	164
0	633403	63340.2	69
0	634009	63400.8	22
0	635567	63556.6	72
0	635897	63589.6	11
0	636717	63671.6	30
0	636961	63696	59
0	637569	63756.8	109
0	641651	64165	134
0	642085	64208.4	45
0	642585	64258.4	15
0	642691	64269	21
0	643307	64330.6	311
0	646463	64646.2	173
0	646971	64697	110
0	648425	64842.4	4
0	649853	64985.2	57
0	650779	65077.8	54
0	652741	65274	28
0	653819	65381.8	121
0	653849	65384.8	25
0	655647	65564.6	39
0	656995	65699.4	79
0	657411	65741	101
0	657821	65782	73
0	659927	65992.6	217
0	662083	66208.2	112
0	663353	66335.2	9
0	664367	66436.6	14
0	666401	66640	86
0	666805	66680.4	29
0	667217	66721.6	78
0	668423	66842.2	51
0	669841	66984	452
0	672335	67233.4	403
0	672525	67252.4	45
0	673039	67303.8	1
0	673711	67371	13
0	674251	67425	34
0	674521	67452	32
0	680913	68091.2	24
0	681169	68116.8	74
0	681909	68190.8	138
0	685649	68564.8	95
0	686917	68691.6	52
0	688315	68831.4	54
0	691735	69173.4	81
0	692451	69245	60
0	692887	69288.6	6
0	693341	69334	238
0	695827	69582.6	88
0	698251	69825	133
0	699363	69936.2	62
0	699487	69948.6	58
0	701361	70136	58
0	705763	70576.2	331
0	706219	70621.8	58
0	706675	70667.4	162
0	712407	71240.6	43
0	714413	71441.2	27
0	715753	71575.2	73
0	718485	71848.4	20
0	718773	71877.2	43
0	720171	72017	138
0	720419	72041.8	6
0	721585	72158.4	271
0	729917	72991.6	145
0	730319	73031.8	20
0	732851	73285	83
0	734547	73454.6	309
0	735535	73553.4	136
0	737117	73711.6	98
0	737327	73732.6	104
0	737825	73782.4	42
0	740527	74052.6	12
0	740747	74074.6	14
0	741863	74186.2	15
0	743217	74321.6	68
0	744135	74413.4	34
0	745123	74512.2	12
0	745451	74545	23
0	746217	74621.6	13
0	747107	74710.6	38
0	748877	74887.6	2
0	750955	75095.4	68
0	753723	75372.2	235
0	754211	75421	12
0	756029	75602.8	7
0	756657	75665.6	11
0	758097	75809.6	126
0	758163	75816.2	7
0	758809	75880.8	28
0	760421	76042	129
0	763259	76325.8	181
0	763605	76360.4	17
0	764091	76409	139
0	765107	76510.6	66
0	765565	76556.4	203
0	765885	76588.4	6
0	766319	76631.8	40
0	769579	76957.8	15
0	770567	77056.6	49
0	770619	77061.8	23
0	771509	77150.8	172
0	771743	77174.2	163
0	772223	77222.2	47
0	774391	77439	9
0	774841	77484	1
0	776589	77658.8	122
0	777307	77730.6	50
0	779139	77913.8	18
0	780893	78089.2	5
0	782031	78203	279
0	783387	78338.6	15
0	783525	78352.4	20
0	783869	78386.8	109
0	784009	78400.8	10
0	785867	78586.6	281
0	789325	78932.4	55
0	789505	78950.4	95
0	789591	78959	25
0	790119	79011.8	7
0	790959	79095.8	231
0	795459	79545.8	125
0	795529	79552.8	59
0	795653	79565.2	12
0	796445	79644.4	96
0	796865	79686.4	31
0	797319	79731.8	24
0	799525	79952.4	272
0	799973	79997.2	39
0	801049	80104.8	20
0	801585	80158.4	103
0	801779	80177.8	19
0	802557	80255.6	14
0	803465	80346.4	76
0	806497	80649.6	9
0	807169	80716.8	65
0	808091	80809	130
0	808853	80885.2	472
0	811029	81102.8	222
0	811225	81122.4	16
0	812605	81260.4	39
0	813747	81374.6	477
0	818605	81860.4	37
0	818735	81873.4	71
0	820389	82038.8	18
0	821505	82150.4	41
0	821885	82188.4	51
0	825299	82529.8	97
0	825463	82546.2	71
0	825601	82560	57
0	826575	82657.4	84
0	827873	82787.2	107
0	828231	82823	328
0	830423	83042.2	166
0	830509	83050.8	50
0	831265	83126.4	4
0	831805	83180.4	475
0	831865	83186.4	36
0	833621	83362	130
0	834783	83478.2	1
0	835229	83522.8	47
0	836053	83605.2	41
0	837129	83712.8	90
0	838569	83856.8	173
0	838629	83862.8	41
0	840113	84011.2	43
0	840805	84080.4	14
0	840969	84096.8	6
0	841517	84151.6	45
0	841621	84162	68
0	841907	84190.6	64
0	842179	84217.8	28
0	842727	84272.6	2
0	844311	84431	63
0	844481	84448	135
0	844689	84468.8	54
0	846025	84602.4	56
0	847181	84718	94
0	848005	84800.4	111
0	849269	84926.8	8
0	849561	84956	89
0	850017	85001.6	126
0	853209	85320.8	137
0	854545	85454.4	78
0	855127	85512.6	212
0	855349	85534.8	1
0	858157	85815.6	31
0	860039	86003.8	264
0	860365	86036.4	146
0	860799	86079.8	44
0	861247	86124.6	5
0	861539	86153.8	188
0	865099	86509.8	16
0	865343	86534.2	23
0	867055	86705.4	160
0	867171	86717	24
0	867513	86751.2	90
0	867749	86774.8	28
0	868653	86865.2	197
0	870021	87002	78
0	871945	87194.4	105
0	872473	87247.2	15
0	872763	87276.2	60
0	872897	87289.6	8
0	872969	87296.8	3
0	874011	87401	104
0	874675	87467.4	19
0	881091	88109	32
0	882119	88211.8	12
0	883033	88303.2	61
0	883305	88330.4	35
0	885345	88534.4	13
0	885503	88550.2	82
0	885687	88568.6	23
0	885903	88590.2	95
0	890307	89030.6	61
0	891605	89160.4	6
0	893959	89395.8	4
0	897483	89748.2	40
0	898499	89849.8	234
0	899135	89913.4	30
0	901657	90165.6	181
0	902003	90200.2	115
0	902091	90209	85
0	904175	90417.4	5
0	905595	90559.4	93
0	905669	90566.8	59
0	906669	90666.8	32
0	907029	90702.8	1
0	907947	90794.6	33
0	908577	90857.6	13
0	908723	90872.2	71
0	910781	91078	129
0	911509	91150.8	45
0	912261	91226	13
0	913939	91393.8	51
0	914865	91486.4	245
0	915407	91540.6	138
0	916101	91610	78
0	917339	91733.8	85
0	917859	91785.8	92
0	919611	91961	333
0	919769	91976.8	152
0	920631	92063	10
0	921809	92180.8	150
0	922613	92261.2	90
0	922969	92296.8	65
0	925769	92576.8	364
0	926327	92632.6	31
0	927421	92742	32
0	931103	93110.2	15
0	931305	93130.4	133
0	932003	93200.2	258
0	934465	93446.4	118
0	935751	93575	133
0	937923	93792.2	30
0	938077	93807.6	29
0	938693	93869.2	7
0	940399	94039.8	1
0	940511	94051	31
0	940519	94051.8	3
0	940867	94086.6	14
0	942723	94272.2	27
0	943343	94334.2	124
0	944157	94415.6	189
0	946581	94658	139
0	948009	94800.8	11
0	950363	95036.2	57
0	951583	95158.2	2
0	957187	95718.6	108
0	958745	95874.4	97
0	960151	96015	65
0	960325	96032.4	57
0	961307	96130.6	156
0	964305	96430.4	310
0	964999	96499.8	65
0	974017	97401.6	42
0	974157	97415.6	88
0	974715	97471.4	15
0	977371	97737	204
0	977659	97765.8	14
0	978667	97866.6	60
0	979517	97951.6	75
0	981825	98182.4	106
0	982029	98202.8	87
0	982439	98243.8	19
0	982533	98253.2	16
0	983481	98348	13
0	984217	98421.6	105
0	984269	98426.8	26
0	984617	98461.6	3
0	984995	98499.4	65
0	986061	98606	164
0	988049	98804.8	17
0	989517	98951.6	331
0	991397	99139.6	54
0	992439	99243.8	49
0	996193	99619.2	75
0	996389	99638.8	36
0	999785	99978.4	89
0	1000225	100022.4	51
0	1002045	100204.4	34
0	1002287	100228.6	14
0	1009309	100930.8	64
0	1011317	101131.6	65
0	1011477	101147.6	124
0	1011603	101160.2	39
0	1012061	101206	105
0	1015799	101579.8	13
0	1017261	101726	126
0	1019239	101923.8	497
0	1020089	102008.8	56
0	1022911	102291	71
0	1023361	102336	151
0	1024585	102458.4	370
0	1024845	102484.4	30
0	1026227	102622.6	82
0	1029485	102948.4	283
0	1030655	103065.4	27
0	1031595	103159.4	180
0	1033743	103374.2	2
0	1034285	103428.4	135
0	1034313	103431.2	7
0	1035103	103510.2	64
0	1036713	103671.2	35
0	1038145	103814.4	43
0	1042865	104286.4	31
0	1043899	104389.8	13
0	1044599	104459.8	49
0	1046125	104612.4	219
0	1046465	104646.4	112
0	1046913	104691.2	143
0	1047161	104716	14
0	1047335	104733.4	76
0	1053129	105312.8	10
0	1053201	105320	33
0	1055793	105579.2	99
0	1056521	105652	289
0	1057967	105796.6	80
0	1059583	105958.2	79
0	1060997	106099.6	42
0	1061949	106194.8	27
0	1062111	106211	22
0	1062601	106260	128
0	1062875	106287.4	49
0	1064145	106414.4	233
0	1065897	106589.6	54
0	1066659	106665.8	151
0	1067215	106721.4	4
0	1067605	106760.4	9
0	1068127	106812.6	19
0	1069947	106994.6	14
0	1072189	107218.8	94
0	1073577	107357.6	44
0	1074505	107450.4	97
0	1076491	107649	224
0	1076937	107693.6	94
0	1077357	107735.6	17
0	1081237	108123.6	102
0	1081845	108184.4	16
0	1085735	108573.4	133
0	1087135	108713.4	4
0	1089681	108968	1
0	1090403	109040.2	19
0	1094327	109432.6	63
0	1095403	109540.2	81
0	1097737	109773.6	22
0	1098095	109809.4	35
0	1099457	109945.6	72
0	1100653	110065.2	13
0	1100863	110086.2	167
0	1100999	110099.8	91
0	1101495	110149.4	5
0	1103085	110308.4	19
0	1105123	110512.2	4
0	1105971	110597	235
0	1107101	110710	13
0	1107467	110746.6	160
0	1108291	110829	2
0	1108461	110846	28
0	1108911	110891	84
0	1109063	110906.2	103
0	1110091	111009	150
0	1110775	111077.4	5
0	1116379	111637.8	2
0	1116751	111675	70
0	1119111	111911	90
0	1120193	112019.2	6
0	1122457	112245.6	182
0	1122631	112263	97
0	1123361	112336	45
0	1124449	112444.8	14
0	1124965	112496.4	54
0	1125003	112500.2	24
0	1125533	112553.2	2
0	1126693	112669.2	181
0	1127813	112781.2	1
0	1130275	113027.4	12
0	1130861	113086	57
0	1133321	113332	70
0	1133413	113341.2	81
0	1134277	113427.6	98
0	1135133	113513.2	43
0	1135979	113597.8	2
0	1137763	113776.2	2
0	1137869	113786.8	60
0	1139095	113909.4	77
0	1142747	114274.6	21
0	1142843	114284.2	15
0	1143585	114358.4	45
0	1144407	114440.6	131
0	1148293	114829.2	16
0	1150135	115013.4	57
0	1150995	115099.4	125
0	1151101	115110	2
0	1151627	115162.6	43
0	1152923	115292.2	258
0	1154949	115494.8	4
0	1164279	116427.8	4
0	1164447	116444.6	93
0	1168233	116823.2	200
0	1171423	117142.2	209
0	1172355	117235.4	92
0	1173863	117386.2	34
0	1176971	117697	111
0	1177201	117720	2
0	1177845	117784.4	154
0	1178739	117873.8	10
0	1178921	117892	78
0	1179181	117918	27
0	1179623	117962.2	75
0	1181291	118129	27
0	1182947	118294.6	27
0	1184319	118431.8	27
0	1184473	118447.2	51
0	1185057	118505.6	263
0	1185245	118524.4	50
0	1185995	118599.4	183
0	1186549	118654.8	29
0	1187799	118779.8	1
0	1190841	119084	130
0	1192335	119233.4	24
0	1193923	119392.2	8
0	1200105	120010.4	161
0	1200465	120046.4	140
0	1200799	120079.8	97
0	1202455	120245.4	52
0	1203015	120301.4	64
0	1203231	120323	123
0	1204503	120450.2	39
0	1205485	120548.4	8
0	1205629	120562.8	69
0	1206199	120619.8	14
0	1207395	120739.4	4
0	1207543	120754.2	8
0	1210727	121072.6	173
0	1211611	121161	99
0	1212165	121216.4	23
0	1212769	121276.8	50
0	1214613	121461.2	35
0	1215313	121531.2	255
0	1216287	121628.6	24
0	1218113	121811.2	278
0	1219055	121905.4	46
0	1219139	121913.8	78
0	1220061	122006	107
0	1220193	122019.2	50
0	1222889	122288.8	30
0	1223749	122374.8	26
0	1224603	122460.2	8
0	1225339	122533.8	45
0	1227365	122736.4	16
0	1229975	122997.4	19
0	1230293	123029.2	256
0	1231407	123140.6	145
0	1231417	123141.6	5
0	1232265	123226.4	84
0	1233245	123324.4	6
0	1233549	123354.8	61
0	1235707	123570.6	96
0	1237991	123799	86
0	1238575	123857.4	5
0	1239819	123981.8	49
0	1240163	124016.2	57
0	1241681	124168	37
0	1245277	124527.6	158
0	1249289	124928.8	216
0	1251981	125198	103
0	1252177	125217.6	140
0	1252207	125220.6	22
0	1253707	125370.6	3
0	1255541	125554	6
0	1256333	125633.2	351
0	1257959	125795.8	190
0	1259145	125914.4	44
0	1260293	126029.2	19
0	1261449	126144.8	28
0	1261673	126167.2	71
0	1262029	126202.8	113
0	1262519	126251.8	51
0	1265699	126569.8	108
0	1265959	126595.8	122
0	1266141	126614	146
0	1266723	126672.2	35
0	1267845	126784.4	106
0	1268605	126860.4	12
0	1269025	126902.4	12
0	1269209	126920.8	180
0	1269277	126927.6	2
0	1270353	127035.2	190
0	1270531	127053	5
0	1271095	127109.4	121
0	1275255	127525.4	142
0	1276199	127619.8	3
0	1276593	127659.2	124
0	1276793	127679.2	62
0	1277259	127725.8	97
0	1278035	127803.4	220
0	1281049	128104.8	195
0	1281349	128134.8	128
0	1282051	128205	23
0	1282869	128286.8	7
0	1282947	128294.6	50
0	1283111	128311	120
0	1285281	128528	8
0	1285439	128543.8	113
0	1286369	128636.8	44
0	1288729	128872.8	46
0	1292231	129223	5
0	1293597	129359.6	16
0	1295233	129523.2	61
0	1295603	129560.2	20
0	1295845	129584.4	147
0	1296705	129670.4	184
0	1296991	129699	63
0	1297303	129730.2	10
0	1298399	129839.8	392
0	1302401	130240	19
0	1305161	130516	167
0	1305771	130577	329
0	1306937	130693.6	71
0	1308939	130893.8	38
0	1309841	130984	35
0	1310359	131035.8	113
0	1312001	131200	68
0	1315365	131536.4	54
0	1316735	131673.4	27
0	1317037	131703.6	84
0	1317719	131771.8	5
0	1318391	131839	58
0	1319151	131915	115
0	1319323	131932.2	117
0	1319885	131988.4	376
0	1321869	132186.8	53
0	1322055	132205.4	6
0	1322439	132243.8	294
0	1324337	132433.6	41
0	1327043	132704.2	60
0	1327555	132755.4	52
0	1329605	132960.4	28
0	1330161	133016	13
0	1330361	133036	38
0	1331261	133126	43
0	1332443	133244.2	15
0	1332781	133278	29
0	1336041	133604	66
0	1337955	133795.4	22
0	1338219	133821.8	172
0	1338629	133862.8	86
0	1338727	133872.6	12
0	1340107	134010.6	50
0	1341457	134145.6	185
0	1341917	134191.6	132
0	1343315	134331.4	111
0	1344411	134441	10
0	1345185	134518.4	159
0	1346537	134653.6	4
0	1348337	134833.6	161
0	1348931	134893	195
0	1351067	135106.6	19
0	1352625	135262.4	133
0	1355439	135543.8	4
0	1357695	135769.4	37
0	1360023	136002.2	40
0	1361455	136145.4	245
0	1362425	136242.4	6
0	1363031	136303	16
0	1365755	136575.4	49
0	1366805	136680.4	114
0	1366831	136683	25
0	1367359	136735.8	61
0	1370543	137054.2	160
0	1371019	137101.8	32
0	1371679	137167.8	87
0	1371867	137186.6	58
0	1372453	137245.2	11
0	1372965	137296.4	16
0	1373371	137337	6
0	1373715	137371.4	17
0	1376213	137621.2	101
0	1376565	137656.4	13
0	1378055	137805.4	139
0	1379511	137951	10
0	1379941	137994	17
0	1382003	138200.2	22
0	1383145	138314.4	7
0	1384293	138429.2	150
0	1386415	138641.4	15
0	1388725	138872.4	19
0	1389501	138950	78
0	1391609	139160.8	65
0	1392101	139210	12
0	1399545	139954.4	40
0	1400235	140023.4	124
0	1401351	140135	146
0	1401503	140150.2	52
0	1406471	140647	35
0	1409235	140923.4	28
0	1409659	140965.8	2
0	1410433	141043.2	14
0	1412923	141292.2	40
0	1413251	141325	95
0	1413269	141326.8	13
0	1415139	141513.8	32
0	1415299	141529.8	49
0	1415769	141576.8	262
0	1417633	141763.2	6
0	1418031	141803	34
0	1419529	141952.8	97
0	1420413	142041.2	37
0	1423697	142369.6	15
0	1424599	142459.8	44
0	1426243	142624.2	8
0	1426281	142628	31
0	1426471	142647	62
0	1426533	142653.2	43
0	1429327	142932.6	17
0	1430339	143033.8	118
0	1430971	143097	149
0	1431881	143188	193
0	1432517	143251.6	39
0	1433767	143376.6	384
0	1433883	143388.2	111
0	1435613	143561.2	11
0	1436453	143645.2	42
0	1437175	143717.4	13
0	1438261	143826	42
0	1439265	143926.4	69
0	1439457	143945.6	7
0	1440035	144003.4	5
0	1440283	144028.2	16
0	1441029	144102.8	347
0	1442751	144275	88
0	1443663	144366.2	48
0	1444433	144443.2	13
0	1444979	144497.8	21
0	1445387	144538.6	77
0	1445589	144558.8	44
0	1445999	144599.8	32
0	1446517	144651.6	201
0	1448309	144830.8	38
0	1449231	144923	63
0	1451625	145162.4	19
0	1451653	145165.2	18
0	1453621	145362	133
0	1453827	145382.6	39
0	1455565	145556.4	151
0	1457037	145703.6	110
0	1460481	146048	317
0	1462925	146292.4	48
0	1466743	146674.2	149
0	1466845	146684.4	18
0	1467487	146748.6	250
0	1468841	146884	471
0	1471843	147184.2	27
0	1473449	147344.8	40
0	1474499	147449.8	30
0	1476951	147695	8
0	1479695	147969.4	36
0	1482603	148260.2	108
0	1482923	148292.2	22
0	1483329	148332.8	65
0	1484459	148445.8	5
0	1485025	148502.4	38
0	1486165	148616.4	45
0	1489645	148964.4	146
0	1490743	149074.2	524
0	1491959	149195.8	45
0	1492187	149218.6	60
0	1494121	149412	3
0	1496625	149662.4	386
0	1498167	149816.6	4
0	1498383	149838.2	29
0	1501221	150122	25
0	1503807	150380.6	68
0	1504815	150481.4	303
0	1504947	150494.6	122
0	1505041	150504	34
0	1505379	150537.8	118
0	1505591	150559	65
0	1507927	150792.6	534
0	1509703	150970.2	37
0	1509749	150974.8	30
0	1510399	151039.8	7
0	1510545	151054.4	23
0	1512029	151202.8	73
0	1516381	151638	357
0	1517379	151737.8	32
0	1517611	151761	90
0	1518243	151824.2	46
0	1518323	151832.2	52
0	1519435	151943.4	230
0	1520525	152052.4	136
0	1521041	152104	31
0	1521443	152144.2	2
0	1522113	152211.2	13
0	1522505	152250.4	38
0	1523057	152305.6	183
0	1523307	152330.6	43
0	1523757	152375.6	53
0	1524569	152456.8	105
0	1524667	152466.6	6
0	1527081	152708	31
0	1529351	152935	32
0	1535245	153524.4	139
0	1535693	153569.2	67
0	1537091	153709	49
0	1542971	154297	62
0	1543117	154311.6	10
0	1543791	154379	2
0	1544619	154461.8	62
0	1544711	154471	11
0	1545965	154596.4	14
0	1546599	154659.8	158
0	1547709	154770.8	108
0	1548385	154838.4	136
0	1551417	155141.6	9
0	1551763	155176.2	70
0	1552237	155223.6	307
0	1555025	155502.4	110
0	1556005	155600.4	177
0	1556221	155622	118
0	1556645	155664.4	15
0	1557497	155749.6	24
0	1558741	155874	5
0	1559311	155931	16
0	1562965	156296.4	231
0	1563997	156399.6	42
0	1565183	156518.2	85
0	1567087	156708.6	47
0	1568433	156843.2	86
0	1569627	156962.6	41
0	1571199	157119.8	6
0	1573973	157397.2	74
0	1575005	157500.4	57
0	1577291	157729	20
0	1579187	157918.6	92
0	1581053	158105.2	142
0	1582677	158267.6	30
0	1584675	158467.4	24
0	1585175	158517.4	2
0	1590011	159001	110
0	1592861	159286	116
0	1598895	159889.4	98
0	1599219	159921.8	135
0	1602179	160217.8	160
0	1603493	160349.2	17
0	1606975	160697.4	132
0	1607965	160796.4	182
0	1608863	160886.2	91
0	1609953	160995.2	57
0	1610725	161072.4	11
0	1612751	161275	4
0	1618823	161882.2	72
0	1620037	162003.6	6
0	1620885	162088.4	17
0	1621147	162114.6	45
0	1621871	162187	109
0	1623349	162334.8	86
0	1623419	162341.8	5
0	1623975	162397.4	121
0	1625205	162520.4	39
0	1629687	162968.6	9
0	1630323	163032.2	99
0	1630551	163055	89
0	1630843	163084.2	2
0	1632501	163250	14
0	1634275	163427.4	11
0	1635377	163537.6	40
0	1635963	163596.2	89
0	1637049	163704.8	273
0	1637359	163735.8	25
0	1638333	163833.2	185
0	1640491	164049	114
0	1640575	164057.4	44
0	1642173	164217.2	26
0	1643149	164314.8	18
0	1643377	164337.6	142
0	1644029	164402.8	302
0	1645081	164508	15
0	1651235	165123.4	150
0	1658605	165860.4	279
0	1660779	166077.8	74
0	1666751	166675	139
0	1667051	166705	88
0	1669055	166905.4	67
0	1670265	167026.4	309
0	1671055	167105.4	102
0	1671149	167114.8	53
0	1676119	167611.8	16
0	1677971	167797	137
0	1678549	167854.8	109
0	1680269	168026.8	11
0	1680495	168049.4	83
0	1681005	168100.4	22
0	1681051	168105	12
0	1681271	168127	151
0	1683813	168381.2	63
0	1684615	168461.4	34
0	1685119	168511.8	90
0	1687219	168721.8	165
0	1687337	168733.6	96
0	1687633	168763.2	1
0	1689133	168913.2	70
0	1693243	169324.2	99
0	1695571	169557	47
0	1696935	169693.4	53
0	1697251	169725	15
0	1697743	169774.2	6
0	1698535	169853.4	11
0	1702769	170276.8	34
0	1705307	170530.6	34
0	1706615	170661.4	178
0	1707015	170701.4	25
0	1710829	171082.8	31
0	1712663	171266.2	188
0	1712739	171273.8	13
0	1713239	171323.8	30