version 3
run General-107-20230611-05:41:40-416612
attr configname General
attr datetime 20230611-05:41:40
attr datetimef 20230611-054140
attr experiment General
attr inifile omnetpp.ini
attr iterationvars $N=82
attr iterationvarsd N=82
attr iterationvarsf N=82-
attr measurement $N=82
attr network LN
attr processid 416612
attr repetition 3
attr replication #3
attr resultdir results
attr runnumber 107
attr seedset 107
itervar N 82
config network LN
config sim-time-limit 250000s
config **.tic[*].hopCount.result-recording-modes +vector
config *.numCentralNodes 82
config repeat 4

vector 0 LN.lnd[17] hopCount:vector ETV
attr interpolationmode none
attr recordingmode vector
attr source arrival
attr title "hop count"
vector 1 LN.lnd[6] hopCount:vector ETV
attr interpolationmode none
attr recordingmode vector
attr source arrival
attr title "hop count"
vector 2 LN.lnd[7] hopCount:vector ETV
attr interpolationmode none
attr recordingmode vector
attr source arrival
attr title "hop count"
vector 3 LN.lnd[12] hopCount:vector ETV
attr interpolationmode none
attr recordingmode vector
attr source arrival
attr title "hop count"
vector 4 LN.lnd[8] hopCount:vector ETV
attr interpolationmode none
attr recordingmode vector
attr source arrival
attr title "hop count"
vector 5 LN.lnd[3] hopCount:vector ETV
attr interpolationmode none
attr recordingmode vector
attr source arrival
attr title "hop count"
vector 6 LN.lnd[11] hopCount:vector ETV
attr interpolationmode none
attr recordingmode vector
attr source arrival
attr title "hop count"
vector 7 LN.lnd[9] hopCount:vector ETV
attr interpolationmode none
attr recordingmode vector
attr source arrival
attr title "hop count"
vector 8 LN.lnd[14] hopCount:vector ETV
attr interpolationmode none
attr recordingmode vector
attr source arrival
attr title "hop count"
vector 9 LN.lnd[13] hopCount:vector ETV
attr interpolationmode none
attr recordingmode vector
attr source arrival
attr title "hop count"
vector 10 LN.lnd[18] hopCount:vector ETV
attr interpolationmode none
attr recordingmode vector
attr source arrival
attr title "hop count"
vector 11 LN.lnd[5] hopCount:vector ETV
attr interpolationmode none
attr recordingmode vector
attr source arrival
attr title "hop count"
vector 12 LN.lnd[4] hopCount:vector ETV
attr interpolationmode none
attr recordingmode vector
attr source arrival
attr title "hop count"
vector 13 LN.lnd[0] hopCount:vector ETV
attr interpolationmode none
attr recordingmode vector
attr source arrival
attr title "hop count"
vector 14 LN.lnd[15] hopCount:vector ETV
attr interpolationmode none
attr recordingmode vector
attr source arrival
attr title "hop count"
vector 15 LN.lnd[1] hopCount:vector ETV
attr interpolationmode none
attr recordingmode vector
attr source arrival
attr title "hop count"
vector 16 LN.lnd[19] hopCount:vector ETV
attr interpolationmode none
attr recordingmode vector
attr source arrival
attr title "hop count"
vector 17 LN.lnd[16] hopCount:vector ETV
attr interpolationmode none
attr recordingmode vector
attr source arrival
attr title "hop count"
vector 18 LN.lnd[10] hopCount:vector ETV
attr interpolationmode none
attr recordingmode vector
attr source arrival
attr title "hop count"
vector 19 LN.lnd[2] hopCount:vector ETV
attr interpolationmode none
attr recordingmode vector
attr source arrival
attr title "hop count"
0	91	9	90
0	763	76.2	1
0	2111	211	66
0	3419	341.8	75
0	4265	426.4	155
0	5277	527.6	45
0	12841	1284	51
0	13731	1373	68
0	15577	1557.6	7
0	15981	1598	137
0	16439	1643.8	24
0	16727	1672.6	85
0	17625	1762.4	27
0	17953	1795.2	55
0	18849	1884.8	63
0	19071	1907	210
0	20879	2087.8	52
0	24433	2443.2	2
0	26041	2604	186
0	26955	2695.4	118
0	27675	2767.4	31
0	29411	2941	41
0	31441	3144	1
0	34143	3414.2	18
0	34453	3445.2	35
0	34531	3453	16
0	35763	3576.2	351
0	36765	3676.4	1
0	38975	3897.4	70
0	40747	4074.6	36
0	41901	4190	119
0	42871	4287	30
0	44127	4412.6	59
0	44409	4440.8	60
0	46045	4604.4	173
0	48663	4866.2	77
0	50397	5039.6	1
0	52681	5268	32
0	53905	5390.4	23
0	54709	5470.8	70
0	56885	5688.4	21
0	58583	5858.2	62
0	58949	5894.8	10
0	63797	6379.6	102
0	64193	6419.2	19
0	66167	6616.6	1
0	66727	6672.6	180
0	67053	6705.2	11
0	67677	6767.6	12
0	71121	7112	85
0	71239	7123.8	8
0	71353	7135.2	56
0	73295	7329.4	107
0	74031	7403	124
0	74199	7419.8	90
0	74603	7460.2	1
0	75635	7563.4	43
0	76827	7682.6	119
0	77259	7725.8	11
0	78423	7842.2	17
0	79263	7926.2	1
0	80035	8003.4	88
0	82771	8277	66
0	85061	8506	1
0	87689	8768.8	35
0	88539	8853.8	59
0	89107	8910.6	1
0	90549	9054.8	66
0	91241	9124	190
0	91441	9144	1
0	92419	9241.8	111
0	92453	9245.2	7
0	95951	9595	1
0	97277	9727.6	68
0	99263	9926.2	104
0	100309	10030.8	120
0	100455	10045.4	27
0	100713	10071.2	4
0	101227	10122.6	13
0	101733	10173.2	1
0	102055	10205.4	140
0	103427	10342.6	44
0	105443	10544.2	2
0	105663	10566.2	119
0	106603	10660.2	174
0	107505	10750.4	14
0	108949	10894.8	83
0	109601	10960	4
0	109763	10976.2	28
0	111409	11140.8	37
0	117241	11724	68
0	117859	11785.8	61
0	117925	11792.4	1
0	119317	11931.6	44
0	119895	11989.4	81
0	120657	12065.6	1
0	123049	12304.8	135
0	126001	12600	12
0	127709	12770.8	11
0	130111	13011	13
0	130967	13096.6	78
0	131081	13108	2
0	134847	13484.6	149
0	140355	14035.4	51
0	140357	14035.6	1
0	140421	14042	53
0	140599	14059.8	125
0	141085	14108.4	63
0	143423	14342.2	32
0	143545	14354.4	29
0	147097	14709.6	102
0	148147	14814.6	34
0	148681	14868	39
0	151009	15100.8	259
0	151865	15186.4	2
0	153381	15338	38
0	157015	15701.4	1
0	157783	15778.2	5
0	158083	15808.2	1
0	159485	15948.4	45
0	160555	16055.4	35
0	161097	16109.6	1
0	161227	16122.6	24
0	161341	16134	1
0	162349	16234.8	148
0	164779	16477.8	16
0	165967	16596.6	9
0	168855	16885.4	77
0	169451	16945	42
0	171673	17167.2	284
0	171769	17176.8	25
0	172591	17259	102
0	174829	17482.8	30
0	175717	17571.6	1
0	178927	17892.6	55
0	179997	17999.6	32
0	180555	18055.4	67
0	184325	18432.4	43
0	185277	18527.6	78
0	185887	18588.6	32
0	186551	18655	88
0	186599	18659.8	11
0	186689	18668.8	1
0	188431	18843	96
0	190503	19050.2	75
0	190919	19091.8	50
0	193171	19317	22
0	195607	19560.6	23
0	195655	19565.4	40
0	196225	19622.4	4
0	196429	19642.8	114
0	197621	19762	3
0	198505	19850.4	107
0	200829	20082.8	2
0	202441	20244	116
0	204889	20488.8	7
0	205355	20535.4	21
0	205963	20596.2	103
0	208417	20841.6	8
0	210673	21067.2	34
0	210735	21073.4	36
0	213099	21309.8	35
0	213695	21369.4	12
0	214389	21438.8	20
0	217505	21750.4	59
0	217877	21787.6	74
0	218559	21855.8	2
0	219777	21977.6	21
0	220455	22045.4	58
0	223071	22307	39
0	224629	22462.8	1
0	225033	22503.2	3
0	225559	22555.8	8
0	225627	22562.6	7
0	226655	22665.4	184
0	229725	22972.4	61
0	230029	23002.8	77
0	231825	23182.4	37
0	232987	23298.6	1
0	233439	23343.8	10
0	233987	23398.6	33
0	235171	23517	6
0	235263	23526.2	27
0	236905	23690.4	22
0	237433	23743.2	4
0	238077	23807.6	153
0	238477	23847.6	26
0	242393	24239.2	106
0	247397	24739.6	28
0	249547	24954.6	20
0	249921	24992	16
0	250843	25084.2	35
0	251991	25199	2
0	253465	25346.4	135
0	255541	25554	12
0	255747	25574.6	58
0	257337	25733.6	40
0	259739	25973.8	3
0	261137	26113.6	3
0	262585	26258.4	19
0	264659	26465.8	155
0	265285	26528.4	11
0	265799	26579.8	38
0	266369	26636.8	32
0	266655	26665.4	138
0	269433	26943.2	22
0	271177	27117.6	15
0	271491	27149	10
0	272225	27222.4	30
0	272993	27299.2	3
0	274359	27435.8	1
0	278307	27830.6	112
0	278651	27865	52
0	279767	27976.6	7
0	283517	28351.6	23
0	284519	28451.8	126
0	285233	28523.2	26
0	286359	28635.8	26
0	288847	28884.6	41
0	289419	28941.8	99
0	291137	29113.6	21
0	291355	29135.4	1
0	292441	29244	118
0	294859	29485.8	4
0	295663	29566.2	52
0	297073	29707.2	73
0	297307	29730.6	163
0	297441	29744	18
0	298301	29830	44
0	299031	29903	22
0	301697	30169.6	4
0	303657	30365.6	140
0	304017	30401.6	11
0	305323	30532.2	52
0	305951	30595	10
0	308979	30897.8	35
0	309579	30957.8	49
0	309589	30958.8	1
0	310945	31094.4	41
0	311001	31100	7
0	313291	31329	21
0	314993	31499.2	121
0	315897	31589.6	9
0	316533	31653.2	85
0	316665	31666.4	29
0	317545	31754.4	20
0	319653	31965.2	137
0	320659	32065.8	112
0	322095	32209.4	27
0	322691	32269	8
0	322713	32271.2	10
0	323871	32387	1
0	324947	32494.6	1
0	327021	32702	50
0	327359	32735.8	93
0	327659	32765.8	1
0	328807	32880.6	2
0	329929	32992.8	36
0	330107	33010.6	133
0	330297	33029.6	127
0	333021	33302	63
0	334039	33403.8	236
0	334563	33456.2	123
0	335867	33586.6	34
0	336313	33631.2	10
0	336675	33667.4	87
0	337769	33776.8	36
0	342301	34230	261
0	343015	34301.4	30
0	343823	34382.2	37
0	347639	34763.8	32
0	349963	34996.2	132
0	350341	35034	87
0	351975	35197.4	86
0	357763	35776.2	15
0	360837	36083.6	29
0	362523	36252.2	1
0	363683	36368.2	41
0	367763	36776.2	133
0	367933	36793.2	6
0	368073	36807.2	6
0	369823	36982.2	160
0	372561	37256	24
0	375307	37530.6	86
0	377575	37757.4	52
0	378273	37827.2	5
0	380257	38025.6	33
0	380651	38065	70
0	382203	38220.2	27
0	382307	38230.6	75
0	383089	38308.8	9
0	383631	38363	121
0	384479	38447.8	56
0	384599	38459.8	29
0	385935	38593.4	193
0	386163	38616.2	107
0	386457	38645.6	16
0	386701	38670	25
0	390259	39025.8	1
0	391787	39178.6	12
0	399457	39945.6	31
0	401091	40109	12
0	409251	40925	84
0	409441	40944	57
0	409935	40993.4	33
0	410327	41032.6	1
0	412771	41277	49
0	416831	41683	276
0	419301	41930	1
0	419615	41961.4	34
0	420879	42087.8	4
0	422691	42269	191
0	423671	42367	35
0	425929	42592.8	1
0	426763	42676.2	72
0	427193	42719.2	123
0	431741	43174	1
0	433209	43320.8	17
0	434563	43456.2	210
0	437579	43757.8	57
0	441825	44182.4	1
0	443287	44328.6	1
0	445599	44559.8	58
0	446437	44643.6	9
0	446843	44684.2	10
0	449183	44918.2	26
0	449283	44928.2	80
0	454745	45474.4	53
0	456199	45619.8	3
0	457303	45730.2	100
0	457455	45745.4	28
0	458335	45833.4	32
0	459697	45969.6	22
0	461957	46195.6	11
0	462903	46290.2	51
0	463893	46389.2	244
0	464193	46419.2	73
0	465193	46519.2	20
0	467641	46764	31
0	468659	46865.8	78
0	470925	47092.4	113
0	471691	47169	50
0	471735	47173.4	23
0	472017	47201.6	35
0	474443	47444.2	3
0	476571	47657	136
0	477015	47701.4	17
0	477989	47798.8	107
0	478901	47890	1
0	484431	48443	165
0	485009	48500.8	103
0	487583	48758.2	55
0	489483	48948.2	42
0	491675	49167.4	127
0	492617	49261.6	1
0	493155	49315.4	71
0	494271	49427	2
0	495151	49515	223
0	496749	49674.8	79
0	500269	50026.8	29
0	502269	50226.8	1
0	503087	50308.6	112
0	504093	50409.2	37
0	505655	50565.4	18
0	506919	50691.8	45
0	507305	50730.4	28
0	507471	50747	8
0	511079	51107.8	3
0	513131	51313	29
0	513875	51387.4	28
0	516731	51673	18
0	516787	51678.6	2
0	517861	51786	53
0	519397	51939.6	156
0	520143	52014.2	4
0	520951	52095	129
0	524175	52417.4	7
0	525279	52527.8	16
0	525985	52598.4	106
0	526239	52623.8	90
0	526519	52651.8	121
0	526931	52693	105
0	527831	52783	1
0	528167	52816.6	123
0	530785	53078.4	42
0	531599	53159.8	2
0	532627	53262.6	39
0	532997	53299.6	1
0	533561	53356	105
0	535155	53515.4	25
0	535771	53577	169
0	538717	53871.6	43
0	539661	53966	66
0	540359	54035.8	140
0	541147	54114.6	103
0	541711	54171	5
0	542657	54265.6	32
0	543361	54336	8
0	543671	54367	79
0	545635	54563.4	41
0	546611	54661	92
0	548233	54823.2	124
0	548855	54885.4	41
0	549489	54948.8	10
0	549807	54980.6	68
0	550925	55092.4	27
0	553589	55358.8	1
0	554073	55407.2	38
0	554157	55415.6	38
0	559823	55982.2	56
0	561013	56101.2	72
0	563105	56310.4	4
0	564605	56460.4	166
0	567025	56702.4	1
0	567147	56714.6	1
0	567933	56793.2	19
0	568847	56884.6	41
0	569021	56902	25
0	570479	57047.8	15
0	570989	57098.8	17
0	571527	57152.6	23
0	573111	57311	37
0	574775	57477.4	1
0	575425	57542.4	183
0	575765	57576.4	9
0	576489	57648.8	235
0	578031	57803	34
0	579015	57901.4	28
0	579469	57946.8	19
0	579757	57975.6	152
0	581207	58120.6	64
0	582283	58228.2	81
0	583163	58316.2	194
0	586435	58643.4	23
0	588479	58847.8	211
0	588571	58857	40
0	590687	59068.6	51
0	591889	59188.8	280
0	592347	59234.6	20
0	592717	59271.6	331
0	593069	59306.8	103
0	593293	59329.2	19
0	594517	59451.6	132
0	597247	59724.6	36
0	600041	60004	1
0	601115	60111.4	189
0	602157	60215.6	1
0	603421	60342	113
0	604263	60426.2	16
0	604887	60488.6	168
0	605553	60555.2	158
0	606377	60637.6	21
0	606687	60668.6	61
0	607945	60794.4	47
0	608423	60842.2	87
0	609249	60924.8	34
0	610317	61031.6	55
0	610489	61048.8	25
0	611195	61119.4	5
0	611685	61168.4	72
0	612333	61233.2	46
0	612517	61251.6	6
0	614745	61474.4	34
0	614981	61498	17
0	616363	61636.2	53
0	616967	61696.6	109
0	617605	61760.4	38
0	618349	61834.8	136
0	619149	61914.8	158
0	619287	61928.6	106
0	619523	61952.2	5
0	619803	61980.2	57
0	620563	62056.2	33
0	621853	62185.2	46
0	622825	62282.4	23
0	623063	62306.2	3
0	624261	62426	16
0	624275	62427.4	12
0	624369	62436.8	44
0	625373	62537.2	31
0	625595	62559.4	99
0	628301	62830	49
0	635265	63526.4	51
0	636595	63659.4	88
0	637541	63754	61
0	638065	63806.4	68
0	639307	63930.6	37
0	639491	63949	56
0	639739	63973.8	84
0	643903	64390.2	182
0	645645	64564.4	43
0	645699	64569.8	3
0	646211	64621	30
0	646685	64668.4	26
0	647477	64747.6	56
0	647791	64779	150
0	648415	64841.4	130
0	654795	65479.4	8
0	660303	66030.2	321
0	661225	66122.4	115
0	663649	66364.8	14
0	664629	66462.8	126
0	664709	66470.8	39
0	665087	66508.6	8
0	665743	66574.2	6
0	666841	66684	20
0	669991	66999	40
0	670885	67088.4	39
0	671625	67162.4	2
0	673375	67337.4	41
0	674171	67417	25
0	674777	67477.6	84
0	676325	67632.4	149
0	676483	67648.2	146
0	677121	67712	9
0	680885	68088.4	7
0	681843	68184.2	63
0	685519	68551.8	1
0	685915	68591.4	1
0	687165	68716.4	1
0	687241	68724	36
0	688735	68873.4	1
0	689099	68909.8	169
0	689809	68980.8	12
0	691621	69162	9
0	692205	69220.4	105
0	694265	69426.4	194
0	696095	69609.4	41
0	698461	69846	37
0	699007	69900.6	3
0	699779	69977.8	116
0	700997	70099.6	193
0	702049	70204.8	112
0	702639	70263.8	24
0	703297	70329.6	139
0	704495	70449.4	18
0	704663	70466.2	97
0	706885	70688.4	84
0	707333	70733.2	13
0	707373	70737.2	8
0	710503	71050.2	26
0	710987	71098.6	198
0	711387	71138.6	9
0	712079	71207.8	117
0	712935	71293.4	110
0	714771	71477	64
0	715237	71523.6	177
0	717065	71706.4	11
0	717273	71727.2	13
0	717351	71735	4
0	718657	71865.6	27
0	719277	71927.6	42
0	719595	71959.4	74
0	720107	72010.6	1
0	720497	72049.6	60
0	720827	72082.6	217
0	722233	72223.2	78
0	722603	72260.2	29
0	722729	72272.8	45
0	722967	72296.6	38
0	725245	72524.4	10
0	725523	72552.2	86
0	730211	73021	15
0	730703	73070.2	38
0	731047	73104.6	54
0	731325	73132.4	24
0	731731	73173	144
0	734213	73421.2	64
0	737035	73703.4	104
0	737629	73762.8	118
0	739027	73902.6	18
0	739267	73926.6	2
0	741949	74194.8	144
0	743087	74308.6	29
0	743699	74369.8	136
0	746177	74617.6	45
0	746443	74644.2	40
0	746601	74660	113
0	748875	74887.4	40
0	750219	75021.8	1
0	750615	75061.4	21
0	750705	75070.4	70
0	751865	75186.4	4
0	752681	75268	8
0	756449	75644.8	50
0	756597	75659.6	38
0	760091	76009	24
0	760333	76033.2	14
0	761405	76140.4	2
0	762409	76240.8	94
0	765295	76529.4	72
0	766111	76611	47
0	766957	76695.6	25
0	767363	76736.2	121
0	767903	76790.2	79
0	768501	76850	92
0	768621	76862	1
0	768963	76896.2	19
0	769137	76913.6	5
0	769677	76967.6	19
0	770075	77007.4	4
0	770339	77033.8	47
0	772385	77238.4	20
0	774143	77414.2	2
0	774483	77448.2	20
0	775929	77592.8	292
0	778525	77852.4	15
0	779521	77952	1
0	779839	77983.8	41
0	779957	77995.6	27
0	780851	78085	52
0	780921	78092	49
0	782085	78208.4	91
0	782387	78238.6	16
0	784189	78418.8	152
0	786899	78689.8	15
0	787297	78729.6	90
0	788189	78818.8	122
0	788191	78819	1
0	788281	78828	33
0	789157	78915.6	66
0	791711	79171	220
0	794127	79412.6	37
0	795659	79565.8	47
0	798517	79851.6	12
0	799789	79978.8	26
0	800839	80083.8	4
0	801129	80112.8	139
0	801303	80130.2	145
0	801489	80148.8	115
0	801731	80173	56
0	802449	80244.8	79
0	803021	80302	24
0	806327	80632.6	127
0	807925	80792.4	79
0	808059	80805.8	10
0	808967	80896.6	1
0	810395	81039.4	10
0	812863	81286.2	30
0	813449	81344.8	46
0	814297	81429.6	60
0	817055	81705.4	27
0	817637	81763.6	143
0	818187	81818.6	20
0	818511	81851	75
0	819485	81948.4	41
0	820447	82044.6	162
0	822445	82244.4	23
0	823309	82330.8	33
0	824253	82425.2	17
0	824565	82456.4	31
0	825059	82505.8	394
0	828407	82840.6	1
0	828795	82879.4	96
0	828979	82897.8	62
0	828993	82899.2	7
0	829051	82905	1
0	829585	82958.4	1
0	829613	82961.2	18
0	830053	83005.2	11
0	833039	83303.8	37
0	833437	83343.6	11
0	833689	83368.8	76
0	834237	83423.6	1
0	835475	83547.4	111
0	836563	83656.2	60
0	838897	83889.6	9
0	841001	84100	2
0	841581	84158	198
0	842123	84212.2	109
0	842983	84298.2	45
0	847817	84781.6	117
0	849819	84981.8	42
0	850029	85002.8	93
0	850525	85052.4	124
0	850755	85075.4	147
0	851517	85151.6	12
0	851759	85175.8	5
0	852293	85229.2	11
0	852369	85236.8	3
0	855529	85552.8	27
0	856367	85636.6	42
0	857673	85767.2	97
0	858069	85806.8	75
0	858361	85836	1
0	859359	85935.8	41
0	861191	86119	11
0	861879	86187.8	8
0	862169	86216.8	76
0	862809	86280.8	3
0	863465	86346.4	1
0	865135	86513.4	26
0	865779	86577.8	10
0	866805	86680.4	37
0	868091	86809	79
0	868423	86842.2	32
0	870649	87064.8	15
0	871839	87183.8	1
0	873009	87300.8	16
0	873703	87370.2	21
0	874739	87473.8	84
0	875253	87525.2	100
0	877035	87703.4	5
0	877681	87768	42
0	878217	87821.6	3
0	878355	87835.4	77
0	880009	88000.8	7
0	882263	88226.2	25
0	884507	88450.6	48
0	887153	88715.2	118
0	889635	88963.4	17
0	893207	89320.6	146
0	893333	89333.2	5
0	895031	89503	58
0	899817	89981.6	109
0	899975	89997.4	46
0	901073	90107.2	66
0	903195	90319.4	119
0	903625	90362.4	21
0	905087	90508.6	60
0	905603	90560.2	2
0	905993	90599.2	61
0	911623	91162.2	23
0	912195	91219.4	78
0	912837	91283.6	48
0	913607	91360.6	21
0	916529	91652.8	27
0	917455	91745.4	7
0	918425	91842.4	6
0	922195	92219.4	85
0	923133	92313.2	12
0	923885	92388.4	18
0	924061	92406	46
0	924753	92475.2	69
0	928775	92877.4	85
0	930535	93053.4	41
0	932243	93224.2	17
0	933307	93330.6	167
0	933713	93371.2	6
0	933841	93384	25
0	935335	93533.4	1
0	935721	93572	10
0	935877	93587.6	10
0	937883	93788.2	13
0	940831	94083	107
0	941467	94146.6	59
0	942257	94225.6	5
0	942677	94267.6	68
0	943725	94372.4	185
0	943853	94385.2	26
0	948245	94824.4	132
0	949747	94974.6	76
0	950709	95070.8	6
0	950907	95090.6	1
0	951223	95122.2	43
0	951967	95196.6	43
0	953901	95390	11
0	954503	95450.2	23
0	955283	95528.2	38
0	956075	95607.4	59
0	963519	96351.8	27
0	964243	96424.2	22
0	966373	96637.2	259
0	967805	96780.4	41
0	968929	96892.8	1
0	971297	97129.6	4
0	972357	97235.6	3
0	973351	97335	36
0	973903	97390.2	37
0	974797	97479.6	158
0	978497	97849.6	25
0	978733	97873.2	25
0	978909	97890.8	34
0	980807	98080.6	157
0	982769	98276.8	60
0	983343	98334.2	18
0	984829	98482.8	28
0	987091	98709	23
0	987765	98776.4	5
0	989189	98918.8	85
0	989215	98921.4	16
0	990165	99016.4	18
0	990567	99056.6	36
0	992359	99235.8	28
0	993051	99305	12
0	994849	99484.8	27
0	995475	99547.4	22
0	995585	99558.4	5
0	997461	99746	109
0	1000883	100088.2	30
0	1003477	100347.6	62
0	1003981	100398	179
0	1005967	100596.6	7
0	1007655	100765.4	37
0	1009201	100920	70
0	1014189	101418.8	111
0	1015701	101570	73
0	1017321	101732	21
0	1017623	101762.2	125
0	1017843	101784.2	59
0	1024509	102450.8	51
0	1025083	102508.2	118
0	1028673	102867.2	91
0	1030173	103017.2	233
0	1033053	103305.2	21
0	1034601	103460	55
0	1037037	103703.6	24
0	1037369	103736.8	44
0	1039183	103918.2	22
0	1039251	103925	67
0	1039451	103945	1
0	1043469	104346.8	7
0	1044083	104408.2	101
0	1046759	104675.8	1
0	1047497	104749.6	52
0	1048015	104801.4	35
0	1049147	104914.6	52
0	1051321	105132	135
0	1053563	105356.2	1
0	1055067	105506.6	228
0	1055747	105574.6	49
0	1056361	105636	16
0	1058019	105801.8	38
0	1059737	105973.6	18
0	1060273	106027.2	344
0	1062389	106238.8	9
0	1062847	106284.6	1
0	1063855	106385.4	77
0	1064545	106454.4	30
0	1066883	106688.2	56
0	1067335	106733.4	10
0	1069219	106921.8	46
0	1069679	106967.8	6
0	1069847	106984.6	34
0	1070071	107007	1
0	1071405	107140.4	17
0	1072175	107217.4	44
0	1073159	107315.8	79
0	1073783	107378.2	14
0	1073937	107393.6	91
0	1076105	107610.4	1
0	1078031	107803	28
0	1078383	107838.2	1
0	1082853	108285.2	261
0	1083293	108329.2	27
0	1084477	108447.6	201
0	1084697	108469.6	12
0	1085981	108598	117
0	1086657	108665.6	19
0	1088081	108808	129
0	1089989	108998.8	21
0	1090741	109074	13
0	1095489	109548.8	188
0	1095793	109579.2	34
0	1097561	109756	24
0	1098513	109851.2	1
0	1098839	109883.8	5
0	1099295	109929.4	90
0	1100267	110026.6	51
0	1101591	110159	140
0	1102673	110267.2	9
0	1103867	110386.6	1
0	1104701	110470	29
0	1105915	110591.4	13
0	1106693	110669.2	32
0	1107317	110731.6	92
0	1110461	111046	13
0	1112385	111238.4	45
0	1113897	111389.6	51
0	1115131	111513	31
0	1115469	111546.8	77
0	1116381	111638	8
0	1117195	111719.4	42
0	1117905	111790.4	3
0	1118957	111895.6	1
0	1119067	111906.6	77
0	1120877	112087.6	21
0	1125447	112544.6	7
0	1126521	112652	99
0	1127081	112708	7
0	1128985	112898.4	150
0	1132021	113202	7
0	1133795	113379.4	47
0	1134707	113470.6	73
0	1135587	113558.6	1
0	1135663	113566.2	8
0	1136007	113600.6	23
0	1137493	113749.2	119
0	1138399	113839.8	117
0	1139157	113915.6	3
0	1140389	114038.8	48
0	1141061	114106	25
0	1141575	114157.4	1
0	1144647	114464.6	1
0	1146801	114680	15
0	1147507	114750.6	97
0	1147683	114768.2	1
0	1148127	114812.6	181
0	1148623	114862.2	111
0	1148887	114888.6	29
0	1149425	114942.4	71
0	1150003	115000.2	17
0	1150009	115000.8	1
0	1150837	115083.6	281
0	1153333	115333.2	129
0	1154495	115449.4	49
0	1155499	115549.8	13
0	1157723	115772.2	24
0	1157953	115795.2	2
0	1161375	116137.4	2
0	1163507	116350.6	64
0	1164341	116434	46
0	1166801	116680	343
0	1167485	116748.4	158
0	1168035	116803.4	1
0	1168699	116869.8	114
0	1168863	116886.2	29
0	1169603	116960.2	166
0	1170837	117083.6	50
0	1173077	117307.6	10
0	1173487	117348.6	69
0	1177379	117737.8	40
0	1179335	117933.4	40
0	1181343	118134.2	52
0	1184009	118400.8	74
0	1185321	118532	21
0	1185981	118598	1
0	1186581	118658	180
0	1188439	118843.8	215
0	1188521	118852	46
0	1191511	119151	12
0	1192371	119237	169
0	1193247	119324.6	2
0	1193907	119390.6	150
0	1195135	119513.4	38
0	1196007	119600.6	4
0	1196731	119673	97
0	1197955	119795.4	19
0	1200747	120074.6	20
0	1202109	120210.8	11
0	1205021	120502	91
0	1205863	120586.2	1
0	1205999	120599.8	101
0	1208495	120849.4	111
0	1208673	120867.2	50
0	1209657	120965.6	3
0	1210039	121003.8	15
0	1212605	121260.4	46
0	1214373	121437.2	1
0	1217295	121729.4	188
0	1220543	122054.2	122
0	1221449	122144.8	5
0	1221573	122157.2	54
0	1222019	122201.8	3
0	1223821	122382	17
0	1224055	122405.4	164
0	1224433	122443.2	64
0	1224595	122459.4	45
0	1226955	122695.4	19
0	1228427	122842.6	13
0	1228947	122894.6	15
0	1229805	122980.4	120
0	1229911	122991	14
0	1231667	123166.6	1
0	1232315	123231.4	1
0	1234925	123492.4	37
0	1237143	123714.2	26
0	1238481	123848	1
0	1239637	123963.6	88
0	1239679	123967.8	19
0	1240095	124009.4	16
0	1240285	124028.4	45
0	1241207	124120.6	116
0	1244101	124410	99
0	1244787	124478.6	33
0	1245339	124533.8	101
0	1245977	124597.6	220
0	1247363	124736.2	22
0	1247497	124749.6	9
0	1248245	124824.4	9
0	1250821	125082	77
0	1251327	125132.6	46
0	1254347	125434.6	19
0	1254415	125441.4	44
0	1255459	125545.8	45
0	1256269	125626.8	123
0	1257689	125768.8	16
0	1259103	125910.2	23
0	1259195	125919.4	41
0	1259393	125939.2	5
0	1262971	126297	10
0	1263473	126347.2	7
0	1264941	126494	3
0	1265909	126590.8	57
0	1266653	126665.2	34
0	1266899	126689.8	15
0	1268269	126826.8	5
0	1269393	126939.2	48
0	1269431	126943	1
0	1272221	127222	88
0	1273921	127392	29
0	1275331	127533	66
0	1275691	127569	231
0	1276059	127605.8	61
0	1276397	127639.6	13
0	1276633	127663.2	114
0	1276793	127679.2	63
0	1277771	127777	180
0	1278085	127808.4	100
0	1278219	127821.8	11
0	1280683	128068.2	146
0	1281719	128171.8	51
0	1283109	128310.8	96
0	1285939	128593.8	144
0	1286917	128691.6	79
0	1287015	128701.4	86
0	1289813	128981.2	164
0	1289979	128997.8	7
0	1292251	129225	2
0	1292975	129297.4	193
0	1293165	129316.4	18
0	1294217	129421.6	8
0	1294497	129449.6	6
0	1295023	129502.2	17
0	1296455	129645.4	24
0	1300345	130034.4	27
0	1301545	130154.4	2
0	1301901	130190	110
0	1302069	130206.8	36
0	1305633	130563.2	131
0	1305803	130580.2	58
0	1310043	131004.2	16
0	1312641	131264	67
0	1313057	131305.6	140
0	1315099	131509.8	45
0	1315203	131520.2	98
0	1315327	131532.6	11
0	1315455	131545.4	17
0	1315699	131569.8	10
0	1316657	131665.6	57
0	1318135	131813.4	42
0	1318227	131822.6	6
0	1318301	131830	50
0	1318831	131883	144
0	1319663	131966.2	110
0	1320095	132009.4	195
0	1322565	132256.4	89
0	1324581	132458	167
0	1325153	132515.2	77
0	1326131	132613	43
0	1327431	132743	4
0	1328783	132878.2	48
0	1331513	133151.2	24
0	1333835	133383.4	58
0	1334699	133469.8	269
0	1334905	133490.4	10
0	1337505	133750.4	20
0	1338307	133830.6	55
0	1339067	133906.6	44
0	1339807	133980.6	80
0	1340003	134000.2	55
0	1341185	134118.4	2
0	1344511	134451	25
0	1344535	134453.4	7
0	1345341	134534	73
0	1346305	134630.4	96
0	1347177	134717.6	116
0	1347531	134753	85
0	1347705	134770.4	11
0	1349667	134966.6	58
0	1352397	135239.6	75
0	1354013	135401.2	16
0	1354523	135452.2	25
0	1355573	135557.2	75
0	1356537	135653.6	4
0	1356801	135680	12
0	1358423	135842.2	41
0	1358443	135844.2	3
0	1361381	136138	150
0	1362555	136255.4	12
0	1362975	136297.4	1
0	1363221	136322	30
0	1363357	136335.6	1
0	1363397	136339.6	3
0	1368683	136868.2	67
0	1370577	137057.6	20
0	1371855	137185.4	74
0	1371955	137195.4	23
0	1373229	137322.8	104
0	1375511	137551	66
0	1376353	137635.2	36
0	1376719	137671.8	70
0	1376841	137684	5
0	1377459	137745.8	13
0	1378705	137870.4	57
0	1378843	137884.2	6
0	1379731	137973	152
0	1379791	137979	42
0	1379957	137995.6	70
0	1380779	138077.8	259
0	1380927	138092.6	51
0	1381635	138163.4	35
0	1383463	138346.2	32
0	1383813	138381.2	6
0	1384085	138408.4	34
0	1386903	138690.2	12
0	1387919	138791.8	45
0	1388943	138894.2	39
0	1389723	138972.2	36
0	1391037	139103.6	78
0	1392487	139248.6	69
0	1396563	139656.2	25
0	1398319	139831.8	18
0	1399015	139901.4	34
0	1402165	140216.4	52
0	1402969	140296.8	18
0	1403051	140305	54
0	1404039	140403.8	89
0	1405153	140515.2	17
0	1405785	140578.4	95
0	1406179	140617.8	1
0	1409031	140903	50
0	1410069	141006.8	25
0	1410619	141061.8	103
0	1413135	141313.4	7
0	1415383	141538.2	11
0	1415621	141562	4
0	1417581	141758	31
0	1418319	141831.8	22
0	1420657	142065.6	47
0	1421719	142171.8	24
0	1421765	142176.4	40
0	1422171	142217	22
0	1427363	142736.2	33
0	1430351	143035	158
0	1430555	143055.4	28
0	1431279	143127.8	177
0	1434001	143400	30
0	1435067	143506.6	58
0	1436417	143641.6	17
0	1439911	143991	10
0	1440761	144076	27
0	1442225	144222.4	114
0	1444873	144487.2	11
0	1445377	144537.6	1
0	1445489	144548.8	81
0	1446409	144640.8	39
0	1448697	144869.6	43
0	1449427	144942.6	23
0	1452077	145207.6	1
0	1453043	145304.2	8
0	1454063	145406.2	20
0	1455531	145553	28
0	1458565	145856.4	31
0	1460841	146084	1
0	1461103	146110.2	1
0	1461197	146119.6	65
0	1462319	146231.8	101
0	1462505	146250.4	118
0	1463101	146310	41
0	1464091	146409	197
0	1464519	146451.8	1
0	1465285	146528.4	71
0	1466151	146615	129
0	1467773	146777.2	12
0	1469113	146911.2	160
0	1469189	146918.8	6
0	1471653	147165.2	8
0	1473435	147343.4	203
0	1475203	147520.2	77
0	1475205	147520.4	1
0	1475423	147542.2	12
0	1475651	147565	7
0	1475913	147591.2	103
0	1477153	147715.2	5
0	1477561	147756	129
0	1479299	147929.8	1
0	1481317	148131.6	67
0	1485265	148526.4	7
0	1485549	148554.8	103
0	1488155	148815.4	148
0	1488413	148841.2	55
0	1489925	148992.4	39
0	1490673	149067.2	23
0	1495165	149516.4	17
0	1495457	149545.6	149
0	1496363	149636.2	90
0	1496573	149657.2	4
0	1497019	149701.8	96
0	1497501	149750	194
0	1497733	149773.2	100
0	1498985	149898.4	65
0	1499957	149995.6	35
0	1500703	150070.2	83
0	1501595	150159.4	77
0	1502537	150253.6	43
0	1503449	150344.8	20
0	1503889	150388.8	12
0	1503923	150392.2	32
0	1504543	150454.2	23
0	1504565	150456.4	14
0	1504949	150494.8	45
0	1505885	150588.4	29
0	1506735	150673.4	126
0	1507999	150799.8	27
0	1508557	150855.6	174
0	1509315	150931.4	106
0	1513193	151319.2	16
0	1513265	151326.4	60
0	1513491	151349	117
0	1516005	151600.4	52
0	1518431	151843	49
0	1518607	151860.6	15
0	1518673	151867.2	49
0	1519641	151964	88
0	1522411	152241	23
0	1523317	152331.6	31
0	1524583	152458.2	13
0	1525061	152506	41
0	1526221	152622	21
0	1527191	152719	32
0	1528191	152819	9
0	1529443	152944.2	2
0	1529859	152985.8	29
0	1530567	153056.6	27
0	1531221	153122	13
0	1535827	153582.6	111
0	1541999	154199.8	251
0	1543767	154376.6	40
0	1543893	154389.2	15
0	1544151	154415	2
0	1544631	154463	20
0	1544719	154471.8	2
0	1544877	154487.6	112
0	1548967	154896.6	72
0	1552075	155207.4	119
0	1552223	155222.2	4
0	1554923	155492.2	67
0	1555985	155598.4	1
0	1558327	155832.6	3
0	1560511	156051	35
0	1561401	156140	44
0	1563875	156387.4	53
0	1564161	156416	219
0	1566901	156690	122
0	1567201	156720	42
0	1568087	156808.6	19
0	1569179	156917.8	1
0	1569733	156973.2	69
0	1571211	157121	52
0	1571443	157144.2	43
0	1571843	157184.2	1
0	1572621	157262	16
0	1572837	157283.6	115
0	1573081	157308	15
0	1573361	157336	46
0	1573757	157375.6	17
0	1574783	157478.2	13
0	1575297	157529.6	75
0	1575909	157590.8	2
0	1578097	157809.6	299
0	1580019	158001.8	33
0	1581211	158121	78
0	1581419	158141.8	96
0	1581597	158159.6	39
0	1584487	158448.6	191
0	1586341	158634	14
0	1586961	158696	4
0	1588599	158859.8	2
0	1590457	159045.6	24
0	1592189	159218.8	21
0	1595329	159532.8	108
0	1595823	159582.2	8
0	1596533	159653.2	46
0	1598047	159804.6	95
0	1598979	159897.8	54
0	1599057	159905.6	10
0	1599435	159943.4	87
0	1600181	160018	9
0	1600643	160064.2	20
0	1601519	160151.8	5
0	1603015	160301.4	38
0	1605963	160596.2	27
0	1607181	160718	60
0	1611061	161106	46
0	1611689	161168.8	2
0	1612659	161265.8	39
0	1616031	161603	59
0	1618039	161803.8	6
0	1618741	161874	109
0	1619629	161962.8	111
0	1620433	162043.2	147
0	1621087	162108.6	147
0	1623999	162399.8	31
0	1625023	162502.2	27
0	1625095	162509.4	62
0	1625839	162583.8	15
0	1626479	162647.8	44
0	1628255	162825.4	46
0	1632815	163281.4	62
0	1633843	163384.2	34
0	1634099	163409.8	15
0	1635645	163564.4	4
0	1635687	163568.6	7
0	1635871	163587	40
0	1636313	163631.2	16
0	1636509	163650.8	73
0	1638681	163868	187
0	1639353	163935.2	9
0	1640723	164072.2	6
0	1642753	164275.2	37
0	1643611	164361	27
0	1645321	164532	183
0	1645523	164552.2	70
0	1646941	164694	101
0	1647333	164733.2	141