version 3
run General-115-20230611-05:41:41-416630
attr configname General
attr datetime 20230611-05:41:41
attr datetimef 20230611-054141
attr experiment General
attr inifile omnetpp.ini
attr iterationvars $N=88
attr iterationvarsd N=88
attr iterationvarsf N=88-
attr measurement $N=88
attr network LN
attr processid 416630
attr repetition 3
attr replication #3
attr resultdir results
attr runnumber 115
attr seedset 115
itervar N 88
config network LN
config sim-time-limit 250000s
config **.tic[*].hopCount.result-recording-modes +vector
config *.numCentralNodes 88
config repeat 4

vector 0 LN.lnd[19] hopCount:vector ETV
attr interpolationmode none
attr recordingmode vector
attr source arrival
attr title "hop count"
vector 1 LN.lnd[7] hopCount:vector ETV
attr interpolationmode none
attr recordingmode vector
attr source arrival
attr title "hop count"
vector 2 LN.lnd[12] hopCount:vector ETV
attr interpolationmode none
attr recordingmode vector
attr source arrival
attr title "hop count"
vector 3 LN.lnd[11] hopCount:vector ETV
attr interpolationmode none
attr recordingmode vector
attr source arrival
attr title "hop count"
vector 4 LN.lnd[14] hopCount:vector ETV
attr interpolationmode none
attr recordingmode vector
attr source arrival
attr title "hop count"
vector 5 LN.lnd[9] hopCount:vector ETV
attr interpolationmode none
attr recordingmode vector
attr source arrival
attr title "hop count"
vector 6 LN.lnd[18] hopCount:vector ETV
attr interpolationmode none
attr recordingmode vector
attr source arrival
attr title "hop count"
vector 7 LN.lnd[2] hopCount:vector ETV
attr interpolationmode none
attr recordingmode vector
attr source arrival
attr title "hop count"
vector 8 LN.lnd[8] hopCount:vector ETV
attr interpolationmode none
attr recordingmode vector
attr source arrival
attr title "hop count"
vector 9 LN.lnd[15] hopCount:vector ETV
attr interpolationmode none
attr recordingmode vector
attr source arrival
attr title "hop count"
vector 10 LN.lnd[4] hopCount:vector ETV
attr interpolationmode none
attr recordingmode vector
attr source arrival
attr title "hop count"
vector 11 LN.lnd[3] hopCount:vector ETV
attr interpolationmode none
attr recordingmode vector
attr source arrival
attr title "hop count"
vector 12 LN.lnd[13] hopCount:vector ETV
attr interpolationmode none
attr recordingmode vector
attr source arrival
attr title "hop count"
vector 13 LN.lnd[10] hopCount:vector ETV
attr interpolationmode none
attr recordingmode vector
attr source arrival
attr title "hop count"
vector 14 LN.lnd[6] hopCount:vector ETV
attr interpolationmode none
attr recordingmode vector
attr source arrival
attr title "hop count"
vector 15 LN.lnd[5] hopCount:vector ETV
attr interpolationmode none
attr recordingmode vector
attr source arrival
attr title "hop count"
vector 16 LN.lnd[16] hopCount:vector ETV
attr interpolationmode none
attr recordingmode vector
attr source arrival
attr title "hop count"
vector 17 LN.lnd[1] hopCount:vector ETV
attr interpolationmode none
attr recordingmode vector
attr source arrival
attr title "hop count"
vector 18 LN.lnd[17] hopCount:vector ETV
attr interpolationmode none
attr recordingmode vector
attr source arrival
attr title "hop count"
vector 19 LN.lnd[0] hopCount:vector ETV
attr interpolationmode none
attr recordingmode vector
attr source arrival
attr title "hop count"
0	16	1.5	15
0	920	91.9	46
0	1332	133.1	67
0	4376	437.5	4
0	5572	557.1	218
0	7076	707.5	4
0	7480	747.9	20
0	8364	836.3	174
0	8490	848.9	9
0	9928	992.7	127
0	10324	1032.3	21
0	11754	1175.3	22
0	12114	1211.3	21
0	14650	1464.9	54
0	14896	1489.5	45
0	16316	1631.5	24
0	18330	1832.9	34
0	18850	1884.9	7
0	19752	1975.1	7
0	20024	2002.3	14
0	22190	2218.9	52
0	23812	2381.1	51
0	24136	2413.5	69
0	24564	2456.3	56
0	25764	2576.3	21
0	27136	2713.5	3
0	27340	2733.9	59
0	28406	2840.5	22
0	28562	2856.1	104
0	28840	2883.9	64
0	29100	2909.9	15
0	30476	3047.5	19
0	30788	3078.7	53
0	31124	3112.3	74
0	31704	3170.3	91
0	32202	3220.1	23
0	33422	3342.1	16
0	33680	3367.9	35
0	35608	3560.7	14
0	38234	3823.3	41
0	38636	3863.5	20
0	42248	4224.7	166
0	47572	4757.1	93
0	49998	4999.7	95
0	51106	5110.5	75
0	58340	5833.9	7
0	59448	5944.7	20
0	61078	6107.7	55
0	61828	6182.7	161
0	64186	6418.5	14
0	64720	6471.9	22
0	65374	6537.3	42
0	66302	6630.1	46
0	67564	6756.3	17
0	68946	6894.5	7
0	70288	7028.7	89
0	70358	7035.7	1
0	70654	7065.3	21
0	71450	7144.9	8
0	72842	7284.1	157
0	74684	7468.3	11
0	77016	7701.5	103
0	78468	7846.7	16
0	78872	7887.1	122
0	80198	8019.7	125
0	83946	8394.5	59
0	84400	8439.9	101
0	84550	8454.9	7
0	85632	8563.1	28
0	91684	9168.3	78
0	93512	9351.1	21
0	94322	9432.1	65
0	95122	9512.1	159
0	96126	9612.5	20
0	96258	9625.7	100
0	96360	9635.9	11
0	101400	10139.9	73
0	101652	10165.1	162
0	102406	10240.5	30
0	107834	10783.3	22
0	108018	10801.7	16
0	111504	11150.3	15
0	111570	11156.9	62
0	113646	11364.5	27
0	114360	11435.9	59
0	118552	11855.1	45
0	119002	11900.1	142
0	119496	11949.5	64
0	119836	11983.5	83
0	120854	12085.3	72
0	120920	12091.9	14
0	124118	12411.7	163
0	124178	12417.7	43
0	130510	13050.9	42
0	134132	13413.1	120
0	134502	13450.1	170
0	134792	13479.1	79
0	136706	13670.5	47
0	136856	13685.5	13
0	139674	13967.3	6
0	141554	14155.3	2
0	141722	14172.1	27
0	142994	14299.3	23
0	143142	14314.1	15
0	144774	14477.3	36
0	146584	14658.3	31
0	147660	14765.9	70
0	148156	14815.5	149
0	148360	14835.9	33
0	148548	14854.7	151
0	148864	14886.3	158
0	149658	14965.7	8
0	151042	15104.1	95
0	152062	15206.1	72
0	153224	15322.3	77
0	153268	15326.7	15
0	155896	15589.5	78
0	156612	15661.1	78
0	159684	15968.3	35
0	162192	16219.1	45
0	162218	16221.7	6
0	164968	16496.7	49
0	166480	16647.9	204
0	166632	16663.1	29
0	167780	16777.9	113
0	169556	16955.5	17
0	170240	17023.9	161
0	170504	17050.3	20
0	170654	17065.3	57
0	171320	17131.9	101
0	172564	17256.3	4
0	173336	17333.5	5
0	173990	17398.9	21
0	175302	17530.1	58
0	178006	17800.5	109
0	179942	17994.1	71
0	181070	18106.9	88
0	185706	18570.5	22
0	186626	18662.5	23
0	188268	18826.7	101
0	188354	18835.3	48
0	188910	18890.9	95
0	192206	19220.5	255
0	194372	19437.1	17
0	196326	19632.5	7
0	199758	19975.7	39
0	199940	19993.9	25
0	201326	20132.5	89
0	201514	20151.3	112
0	202040	20203.9	8
0	204202	20420.1	214
0	204970	20496.9	235
0	208476	20847.5	149
0	208940	20893.9	86
0	210580	21057.9	55
0	211476	21147.5	3
0	211886	21188.5	24
0	212534	21253.3	71
0	214156	21415.5	162
0	214678	21467.7	131
0	214904	21490.3	100
0	216474	21647.3	19
0	217858	21785.7	19
0	218200	21819.9	101
0	218508	21850.7	44
0	219308	21930.7	8
0	219702	21970.1	21
0	221034	22103.3	5
0	221626	22162.5	71
0	223562	22356.1	54
0	225258	22525.7	180
0	226140	22613.9	51
0	231366	23136.5	65
0	231798	23179.7	52
0	232200	23219.9	17
0	233404	23340.3	21
0	233796	23379.5	65
0	236852	23685.1	45
0	239366	23936.5	25
0	239484	23948.3	37
0	240980	24097.9	161
0	241340	24133.9	11
0	241694	24169.3	53
0	247126	24712.5	11
0	248858	24885.7	358
0	249498	24949.7	108
0	249732	24973.1	63
0	249978	24997.7	19
0	250958	25095.7	37
0	251088	25108.7	57
0	251506	25150.5	11
0	251580	25157.9	3
0	252686	25268.5	17
0	255412	25541.1	52
0	255500	25549.9	65
0	256462	25646.1	9
0	256774	25677.3	54
0	257928	25792.7	161
0	259604	25960.3	20
0	260494	26049.3	5
0	261062	26106.1	66
0	261222	26122.1	4
0	261490	26148.9	40
0	261534	26153.3	42
0	261924	26192.3	47
0	264914	26491.3	204
0	265374	26537.3	57
0	270708	27070.7	17
0	271334	27133.3	7
0	272436	27243.5	172
0	273618	27361.7	37
0	275020	27501.9	142
0	275610	27560.9	34
0	276968	27696.7	293
0	279738	27973.7	17
0	280176	28017.5	49
0	280850	28084.9	77
0	281552	28155.1	5
0	281946	28194.5	118
0	283336	28333.5	39
0	284914	28491.3	93
0	285466	28546.5	5
0	285576	28557.5	73
0	286432	28643.1	79
0	287134	28713.3	93
0	287820	28781.9	158
0	287948	28794.7	6
0	289208	28920.7	8
0	289842	28984.1	26
0	290144	29014.3	22
0	290152	29015.1	2
0	290484	29048.3	144
0	292364	29236.3	33
0	297456	29745.5	117
0	297464	29746.3	6
0	298924	29892.3	5
0	300390	30038.9	16
0	303452	30345.1	56
0	305628	30562.7	18
0	306220	30621.9	51
0	308932	30893.1	72
0	309534	30953.3	38
0	311694	31169.3	38
0	312452	31245.1	69
0	314788	31478.7	60
0	315008	31500.7	149
0	315662	31566.1	17
0	316434	31643.3	13
0	317186	31718.5	5
0	318240	31823.9	28
0	319228	31922.7	26
0	319296	31929.5	47
0	319794	31979.3	227
0	320708	32070.7	34
0	321230	32122.9	87
0	321386	32138.5	62
0	323174	32317.3	51
0	325404	32540.3	32
0	327670	32766.9	54
0	328146	32814.5	111
0	330724	33072.3	145
0	330860	33085.9	117
0	331274	33127.3	130
0	331500	33149.9	38
0	332434	33243.3	3
0	333164	33316.3	32
0	334258	33425.7	197
0	334302	33430.1	24
0	334694	33469.3	7
0	335398	33539.7	2
0	339820	33981.9	12
0	341040	34103.9	159
0	341426	34142.5	63
0	347204	34720.3	82
0	347440	34743.9	149
0	347564	34756.3	44
0	349078	34907.7	60
0	349634	34963.3	144
0	349996	34999.5	65
0	351120	35111.9	30
0	353014	35301.3	60
0	353320	35331.9	146
0	354010	35400.9	31
0	354290	35428.9	38
0	354308	35430.7	6
0	355640	35563.9	7
0	355878	35587.7	205
0	356210	35620.9	12
0	357134	35713.3	137
0	357656	35765.5	30
0	359500	35949.9	39
0	359518	35951.7	13
0	360016	36001.5	29
0	360088	36008.7	61
0	361002	36100.1	47
0	361870	36186.9	32
0	364262	36426.1	176
0	364768	36476.7	65
0	365318	36531.7	28
0	369896	36989.5	94
0	370244	37024.3	7
0	370262	37026.1	15
0	371628	37162.7	35
0	371982	37198.1	14
0	373236	37323.5	7
0	374660	37465.9	19
0	374928	37492.7	54
0	375484	37548.3	36
0	376236	37623.5	292
0	377692	37769.1	41
0	377934	37793.3	58
0	378068	37806.7	53
0	378460	37845.9	265
0	378716	37871.5	2
0	378824	37882.3	21
0	379532	37953.1	149
0	380168	38016.7	35
0	380634	38063.3	14
0	381186	38118.5	20
0	382052	38205.1	84
0	383458	38345.7	10
0	384422	38442.1	36
0	386586	38658.5	85
0	387020	38701.9	71
0	387816	38781.5	108
0	389708	38970.7	57
0	391564	39156.3	6
0	391702	39170.1	25
0	392280	39227.9	98
0	395848	39584.7	15
0	397208	39720.7	17
0	398910	39890.9	9
0	398954	39895.3	4
0	399758	39975.7	20
0	402006	40200.5	7
0	402892	40289.1	86
0	403084	40308.3	115
0	404372	40437.1	33
0	406202	40620.1	143
0	407396	40739.5	9
0	407962	40796.1	2
0	409898	40989.7	19
0	411160	41115.9	19
0	415278	41527.7	19
0	415452	41545.1	52
0	415894	41589.3	51
0	416628	41662.7	7
0	417254	41725.3	233
0	417724	41772.3	80
0	418016	41801.5	53
0	419774	41977.3	48
0	422076	42207.5	24
0	424148	42414.7	16
0	426134	42613.3	130
0	426246	42624.5	36
0	426586	42658.5	186
0	430232	43023.1	178
0	432880	43287.9	40
0	433164	43316.3	222
0	434442	43444.1	7
0	434858	43485.7	161
0	435362	43536.1	31
0	436356	43635.5	44
0	436780	43677.9	128
0	437174	43717.3	53
0	437760	43775.9	60
0	438876	43887.5	46
0	440612	44061.1	41
0	446458	44645.7	93
0	446560	44655.9	25
0	450140	45013.9	78
0	451476	45147.5	33
0	455294	45529.3	100
0	456648	45664.7	84
0	459132	45913.1	30
0	464158	46415.7	15
0	465768	46576.7	18
0	466150	46614.9	39
0	466476	46647.5	25
0	468712	46871.1	412
0	469404	46940.3	17
0	469796	46979.5	28
0	470228	47022.7	12
0	473788	47378.7	48
0	474140	47413.9	8
0	475064	47506.3	176
0	475628	47562.7	60
0	476268	47626.7	95
0	477296	47729.5	81
0	480388	48038.7	87
0	481774	48177.3	69
0	481880	48187.9	37
0	483308	48330.7	3
0	484966	48496.5	7
0	486052	48605.1	83
0	491894	49189.3	68
0	492602	49260.1	82
0	492836	49283.5	11
0	494030	49402.9	2
0	494084	49408.3	3
0	495502	49550.1	5
0	497478	49747.7	27
0	497734	49773.3	39
0	504466	50446.5	41
0	504658	50465.7	30
0	505528	50552.7	75
0	505854	50585.3	22
0	506760	50675.9	40
0	507740	50773.9	33
0	508204	50820.3	134
0	508306	50830.5	11
0	508884	50888.3	63
0	510460	51045.9	195
0	511460	51145.9	14
0	511964	51196.3	50
0	514194	51419.3	144
0	514448	51444.7	54
0	515752	51575.1	12
0	519234	51923.3	6
0	519464	51946.3	20
0	524520	52451.9	87
0	526456	52645.5	29
0	529422	52942.1	17
0	529794	52979.3	18
0	531326	53132.5	22
0	537890	53788.9	10
0	537914	53791.3	10
0	540262	54026.1	110
0	540358	54035.7	39
0	544780	54477.9	22
0	545038	54503.7	42
0	545140	54513.9	13
0	545354	54535.3	44
0	546228	54622.7	240
0	546918	54691.7	89
0	548654	54865.3	48
0	549544	54954.3	135
0	551926	55192.5	7
0	552746	55274.5	98
0	553402	55340.1	96
0	554066	55406.5	2
0	554198	55419.7	33
0	554810	55480.9	12
0	555630	55562.9	43
0	556838	55683.7	15
0	565452	56545.1	72
0	565764	56576.3	161
0	566666	56666.5	6
0	568592	56859.1	52
0	570116	57011.5	20
0	571050	57104.9	61
0	571146	57114.5	66
0	573164	57316.3	35
0	573418	57341.7	12
0	573892	57389.1	72
0	574710	57470.9	111
0	577376	57737.5	143
0	580760	58075.9	101
0	582158	58215.7	134
0	582696	58269.5	44
0	584106	58410.5	89
0	584644	58464.3	3
0	587056	58705.5	43
0	589776	58977.5	64
0	590304	59030.3	101
0	590736	59073.5	3
0	591192	59119.1	37
0	591684	59168.3	108
0	592110	59210.9	8
0	593468	59346.7	25
0	594276	59427.5	48
0	599288	59928.7	64
0	599526	59952.5	23
0	599814	59981.3	7
0	603514	60351.3	91
0	605138	60513.7	101
0	606644	60664.3	32
0	607954	60795.3	130
0	608790	60878.9	77
0	610506	61050.5	35
0	612210	61220.9	6
0	613944	61394.3	10
0	614094	61409.3	13
0	615790	61578.9	15
0	618386	61838.5	65
0	621392	62139.1	45
0	623970	62396.9	13
0	624768	62476.7	42
0	625056	62505.5	36
0	626554	62655.3	163
0	628872	62887.1	194
0	629026	62902.5	6
0	630862	63086.1	24
0	632470	63246.9	47
0	633044	63304.3	37
0	633818	63381.7	52
0	635450	63544.9	14
0	636802	63680.1	63
0	638326	63832.5	136
0	641400	64139.9	30
0	642278	64227.7	26
0	642872	64287.1	46
0	643046	64304.5	104
0	643282	64328.1	45
0	643802	64380.1	20
0	646882	64688.1	12
0	649034	64903.3	41
0	650014	65001.3	1
0	652322	65232.1	128
0	653258	65325.7	52
0	653438	65343.7	129
0	653560	65355.9	6
0	655304	65530.3	145
0	656282	65628.1	34
0	656560	65655.9	14
0	656942	65694.1	136
0	658642	65864.1	52
0	659088	65908.7	16
0	664950	66494.9	40
0	665264	66526.3	109
0	666632	66663.1	36
0	667108	66710.7	67
0	669048	66904.7	231
0	669598	66959.7	114
0	669914	66991.3	170
0	670372	67037.1	68
0	673108	67310.7	10
0	674242	67424.1	12
0	676992	67699.1	28
0	677910	67790.9	19
0	679288	67928.7	104
0	681424	68142.3	111
0	682302	68230.1	20
0	683142	68314.1	73
0	684754	68475.3	48
0	685308	68530.7	6
0	685504	68550.3	8
0	687780	68777.9	40
0	690620	69061.9	200
0	691122	69112.1	16
0	693418	69341.7	128
0	693682	69368.1	84
0	695598	69559.7	32
0	695832	69583.1	79
0	696022	69602.1	8
0	696264	69626.3	22
0	696840	69683.9	36
0	697812	69781.1	46
0	699572	69957.1	34
0	702786	70278.5	151
0	706100	70609.9	36
0	706506	70650.5	109
0	710590	71058.9	26
0	711768	71176.7	4
0	712850	71284.9	26
0	714120	71411.9	32
0	715514	71551.3	35
0	715730	71572.9	44
0	716948	71694.7	65
0	717322	71732.1	156
0	719092	71909.1	15
0	719640	71963.9	23
0	720462	72046.1	9
0	724772	72477.1	171
0	725634	72563.3	15
0	727462	72746.1	37
0	729338	72933.7	82
0	730854	73085.3	13
0	730950	73094.9	68
0	731626	73162.5	64
0	731956	73195.5	124
0	733546	73354.5	5
0	733834	73383.3	15
0	734346	73434.5	176
0	735080	73507.9	30
0	735150	73514.9	48
0	736240	73623.9	37
0	736390	73638.9	55
0	737476	73747.5	71
0	740474	74047.3	13
0	740828	74082.7	56
0	740946	74094.5	26
0	741714	74171.3	55
0	743236	74323.5	103
0	744796	74479.5	11
0	745408	74540.7	32
0	745638	74563.7	38
0	748636	74863.5	4
0	749016	74901.5	21
0	749254	74925.3	16
0	755316	75531.5	82
0	756562	75656.1	127
0	756892	75689.1	50
0	757622	75762.1	7
0	757662	75766.1	4
0	758466	75846.5	109
0	759552	75955.1	90
0	760110	76010.9	125
0	761340	76133.9	15
0	761504	76150.3	27
0	763008	76300.7	9
0	764008	76400.7	71
0	766082	76608.1	77
0	766182	76618.1	90
0	766474	76647.3	70
0	766556	76655.5	75
0	766658	76665.7	31
0	767498	76749.7	4
0	771206	77120.5	12
0	772666	77266.5	69
0	772694	77269.3	14
0	773220	77321.9	17
0	773640	77363.9	14
0	776776	77677.5	20
0	777632	77763.1	32
0	779716	77971.5	3
0	784506	78450.5	82
0	787224	78722.3	17
0	788688	78868.7	89
0	789906	78990.5	5
0	790122	79012.1	44
0	790528	79052.7	19
0	791932	79193.1	12
0	796408	79640.7	34
0	797132	79713.1	40
0	798500	79849.9	45
0	799760	79975.9	186
0	801436	80143.5	107
0	802518	80251.7	155
0	804030	80402.9	138
0	806940	80693.9	7
0	808134	80813.3	32
0	808658	80865.7	77
0	809420	80941.9	90
0	811514	81151.3	72
0	812340	81233.9	311
0	814016	81401.5	47
0	814160	81415.9	16
0	814798	81479.7	42
0	815366	81536.5	2
0	815654	81565.3	25
0	816010	81600.9	45
0	816364	81636.3	39
0	817522	81752.1	19
0	820528	82052.7	27
0	820778	82077.7	89
0	822564	82256.3	24
0	824248	82424.7	33
0	824382	82438.1	12
0	826312	82631.1	113
0	827092	82709.1	33
0	828956	82895.5	116
0	831804	83180.3	53
0	833664	83366.3	1
0	834602	83460.1	16
0	834930	83492.9	8
0	835216	83521.5	23
0	837732	83773.1	118
0	838078	83807.7	103
0	839060	83905.9	26
0	839836	83983.5	57
0	841006	84100.5	103
0	841452	84145.1	84
0	842210	84220.9	41
0	843184	84318.3	45
0	845378	84537.7	86
0	846782	84678.1	30
0	849404	84940.3	92
0	849666	84966.5	70
0	850070	85006.9	57
0	854590	85458.9	145
0	855266	85526.5	9
0	857324	85732.3	4
0	857632	85763.1	74
0	858722	85872.1	9
0	860276	86027.5	35
0	861822	86182.1	108
0	863310	86330.9	17
0	866586	86658.5	4
0	867760	86775.9	37
0	867800	86779.9	39
0	870258	87025.7	27
0	870690	87068.9	113
0	871232	87123.1	2
0	874072	87407.1	96
0	875052	87505.1	76
0	875132	87513.1	63
0	875762	87576.1	12
0	876020	87601.9	116
0	877012	87701.1	18
0	878338	87833.7	27
0	882934	88293.3	332
0	885744	88574.3	32
0	889034	88903.3	54
0	889912	88991.1	10
0	891306	89130.5	20
0	892384	89238.3	24
0	893898	89389.7	23
0	894020	89401.9	94
0	895912	89591.1	208
0	897404	89740.3	72
0	898270	89826.9	8
0	901112	90111.1	62
0	901836	90183.5	37
0	902068	90206.7	74
0	902974	90297.3	81
0	904922	90492.1	126
0	908162	90816.1	12
0	910470	91046.9	32
0	911154	91115.3	22
0	915184	91518.3	55
0	917516	91751.5	112
0	917910	91790.9	76
0	919046	91904.5	158
0	919418	91941.7	79
0	920588	92058.7	4
0	921880	92187.9	25
0	921946	92194.5	9
0	923424	92342.3	110
0	924232	92423.1	31
0	924840	92483.9	51
0	925200	92519.9	19
0	925688	92568.7	6
0	927208	92720.7	86
0	927468	92746.7	30
0	927608	92760.7	78
0	929728	92972.7	2
0	931752	93175.1	106
0	933026	93302.5	135
0	933320	93331.9	37
0	934992	93499.1	136
0	938094	93809.3	1
0	939498	93949.7	31
0	940380	94037.9	150
0	940624	94062.3	109
0	941292	94129.1	13
0	942192	94219.1	30
0	942704	94270.3	20
0	943588	94358.7	33
0	944088	94408.7	30
0	944250	94424.9	14
0	944772	94477.1	31
0	945796	94579.5	21
0	949678	94967.7	20
0	950238	95023.7	26
0	950964	95096.3	23
0	951228	95122.7	140
0	953956	95395.5	14
0	954200	95419.9	6
0	956088	95608.7	42
0	961204	96120.3	9
0	961798	96179.7	77
0	964260	96425.9	148
0	964646	96464.5	241
0	964910	96490.9	5
0	966106	96610.5	32
0	968500	96849.9	80
0	969304	96930.3	243
0	973898	97389.7	35
0	974878	97487.7	32
0	976064	97606.3	11
0	976888	97688.7	154
0	982690	98268.9	4
0	983878	98387.7	9
0	984148	98414.7	268
0	985406	98540.5	12
0	985688	98568.7	90
0	986510	98650.9	11
0	986708	98670.7	14
0	987396	98739.5	23
0	988874	98887.3	50
0	991880	99187.9	58
0	991990	99198.9	62
0	992958	99295.7	15
0	993100	99309.9	7
0	994068	99406.7	114
0	995054	99505.3	20
0	998696	99869.5	16
0	998762	99876.1	57
0	1002186	100218.5	106
0	1002244	100224.3	29
0	1003384	100338.3	50
0	1004862	100486.1	14
0	1006644	100664.3	15
0	1008128	100812.7	39
0	1008782	100878.1	151
0	1010694	101069.3	27
0	1010918	101091.7	126
0	1014938	101493.7	163
0	1016054	101605.3	169
0	1016744	101674.3	24
0	1016868	101686.7	13
0	1017146	101714.5	13
0	1017688	101768.7	12
0	1019920	101991.9	2
0	1023274	102327.3	36
0	1024946	102494.5	11
0	1028924	102892.3	193
0	1028934	102893.3	2
0	1030304	103030.3	151
0	1031166	103116.5	117
0	1033432	103343.1	62
0	1033576	103357.5	3
0	1034932	103493.1	105
0	1035184	103518.3	16
0	1039848	103984.7	11
0	1039962	103996.1	4
0	1040128	104012.7	15
0	1040204	104020.3	44
0	1041518	104151.7	25
0	1046152	104615.1	79
0	1047176	104717.5	21
0	1047832	104783.1	186
0	1047988	104798.7	28
0	1048242	104824.1	34
0	1048818	104881.7	63
0	1050080	105007.9	37
0	1050560	105055.9	80
0	1054644	105464.3	2
0	1056360	105635.9	93
0	1057428	105742.7	80
0	1057780	105777.9	11
0	1057812	105781.1	17
0	1060588	106058.7	17
0	1062772	106277.1	27
0	1064012	106401.1	18
0	1064334	106433.3	40
0	1064594	106459.3	83
0	1065122	106512.1	35
0	1065652	106565.1	59
0	1071032	107103.1	114
0	1072376	107237.5	179
0	1073282	107328.1	8
0	1073798	107379.7	33
0	1074212	107421.1	99
0	1074380	107437.9	3
0	1076086	107608.5	161
0	1077914	107791.3	7
0	1078334	107833.3	124
0	1078674	107867.3	117
0	1079992	107999.1	26
0	1080394	108039.3	68
0	1080458	108045.7	45
0	1085100	108509.9	68
0	1085222	108522.1	40
0	1086590	108658.9	121
0	1087460	108745.9	68
0	1088404	108840.3	108
0	1090420	109041.9	49
0	1092818	109281.7	13
0	1093646	109364.5	8
0	1094224	109422.3	29
0	1095182	109518.1	8
0	1096502	109650.1	71
0	1097316	109731.5	188
0	1098450	109844.9	18
0	1099362	109936.1	83
0	1099616	109961.5	41
0	1100128	110012.7	56
0	1101084	110108.3	201
0	1103386	110338.5	6
0	1103584	110358.3	70
0	1104846	110484.5	47
0	1110470	111046.9	67
0	1116114	111611.3	107
0	1116946	111694.5	80
0	1119238	111923.7	48
0	1121522	112152.1	6
0	1123568	112356.7	6
0	1125098	112509.7	36
0	1125190	112518.9	2
0	1126540	112653.9	25
0	1129532	112953.1	66
0	1129704	112970.3	126
0	1129852	112985.1	72
0	1132996	113299.5	22
0	1134186	113418.5	33
0	1134916	113491.5	71
0	1138154	113815.3	136
0	1139614	113961.3	144
0	1142432	114243.1	20
0	1146816	114681.5	81
0	1146968	114696.7	87
0	1148278	114827.7	44
0	1148784	114878.3	51
0	1152320	115231.9	7
0	1156296	115629.5	28
0	1156756	115675.5	49
0	1159182	115918.1	97
0	1159628	115962.7	136
0	1161114	116111.3	37
0	1161530	116152.9	26
0	1163226	116322.5	36
0	1164636	116463.5	74
0	1165124	116512.3	14
0	1167126	116712.5	30
0	1168924	116892.3	199
0	1173326	117332.5	98
0	1174030	117402.9	68
0	1176644	117664.3	204
0	1180092	118009.1	10
0	1180136	118013.5	42
0	1180296	118029.5	17
0	1182138	118213.7	61
0	1184464	118446.3	16
0	1185898	118589.7	35
0	1186542	118654.1	2
0	1187014	118701.3	48
0	1187964	118796.3	22
0	1190756	119075.5	118
0	1192944	119294.3	77
0	1192996	119299.5	44
0	1193516	119351.5	56
0	1194376	119437.5	219
0	1195598	119559.7	39
0	1196642	119664.1	37
0	1197148	119714.7	36
0	1197692	119769.1	14
0	1197810	119780.9	116
0	1202188	120218.7	64
0	1203184	120318.3	250
0	1203374	120337.3	39
0	1204162	120416.1	31
0	1204200	120419.9	2
0	1205014	120501.3	2
0	1205942	120594.1	130
0	1211630	121162.9	57
0	1212146	121214.5	7
0	1214452	121445.1	53
0	1218330	121832.9	19
0	1218656	121865.5	15
0	1219746	121974.5	119
0	1220144	122014.3	85
0	1223838	122383.7	41
0	1225246	122524.5	100
0	1225542	122554.1	120
0	1227182	122718.1	16
0	1228586	122858.5	25
0	1229830	122982.9	173
0	1231590	123158.9	56
0	1232544	123254.3	18
0	1233358	123335.7	2
0	1235778	123577.7	166
0	1237580	123757.9	34
0	1237680	123767.9	5
0	1239582	123958.1	1
0	1239836	123983.5	14
0	1240618	124061.7	3
0	1243330	124332.9	81
0	1243870	124386.9	106
0	1244262	124426.1	3
0	1245858	124585.7	2
0	1248700	124869.9	144
0	1249208	124920.7	13
0	1251336	125133.5	23
0	1252866	125286.5	29
0	1253204	125320.3	52
0	1253750	125374.9	43
0	1253956	125395.5	84
0	1254256	125425.5	74
0	1255422	125542.1	36
0	1258314	125831.3	135
0	1259932	125993.1	176
0	1259982	125998.1	27
0	1260706	126070.5	6
0	1263960	126395.9	10
0	1265390	126538.9	20
0	1266418	126641.7	25
0	1267380	126737.9	47
0	1268356	126835.5	5
0	1268766	126876.5	47
0	1271352	127135.1	19
0	1271526	127152.5	8
0	1272608	127260.7	15
0	1273510	127350.9	93
0	1275680	127567.9	113
0	1276848	127684.7	49
0	1277204	127720.3	34
0	1283350	128334.9	9
0	1283860	128385.9	48
0	1284344	128434.3	2
0	1285284	128528.3	55
0	1285702	128570.1	39
0	1287270	128726.9	24
0	1288762	128876.1	5
0	1289388	128938.7	82
0	1289872	128987.1	19
0	1290974	129097.3	122
0	1295994	129599.3	12
0	1297342	129734.1	101
0	1297908	129790.7	23
0	1299134	129913.3	25
0	1299842	129984.1	44
0	1300232	130023.1	30
0	1304292	130429.1	20
0	1304478	130447.7	5
0	1304548	130454.7	2
0	1308470	130846.9	68
0	1314286	131428.5	19
0	1315996	131599.5	22
0	1316384	131638.3	146
0	1318998	131899.7	9
0	1320134	132013.3	54
0	1321064	132106.3	209
0	1323618	132361.7	33
0	1324294	132429.3	61
0	1324606	132460.5	72
0	1324730	132472.9	34
0	1325304	132530.3	49
0	1329478	132947.7	20
0	1331968	133196.7	77
0	1332220	133221.9	100
0	1333550	133354.9	184
0	1335814	133581.3	11
0	1336388	133638.7	149
0	1336946	133694.5	21
0	1337040	133703.9	38
0	1338472	133847.1	158
0	1340378	134037.7	6
0	1342564	134256.3	29
0	1346824	134682.3	134
0	1348202	134820.1	92
0	1350296	135029.5	62
0	1350492	135049.1	17
0	1350578	135057.7	73
0	1351340	135133.9	3
0	1351748	135174.7	9
0	1353978	135397.7	4
0	1355902	135590.1	71
0	1356596	135659.5	37
0	1357142	135714.1	2
0	1357180	135717.9	2
0	1358510	135850.9	11
0	1358956	135895.5	98
0	1359604	135960.3	179
0	1360446	136044.5	15
0	1361096	136109.5	33
0	1361516	136151.5	170
0	1361884	136188.3	59
0	1362542	136254.1	75
0	1366448	136644.7	99
0	1369592	136959.1	56
0	1369906	136990.5	72
0	1372200	137219.9	2
0	1374568	137456.7	53
0	1375468	137546.7	5
0	1375866	137586.5	20
0	1375976	137597.5	8
0	1378394	137839.3	76
0	1378654	137865.3	184
0	1380506	138050.5	64
0	1381600	138159.9	21
0	1382306	138230.5	7
0	1383266	138326.5	170
0	1384036	138403.5	56
0	1385086	138508.5	29
0	1389312	138931.1	91
0	1390042	139004.1	61
0	1393976	139397.5	230
0	1394096	139409.5	27
0	1395798	139579.7	44
0	1397362	139736.1	90
0	1398422	139842.1	41
0	1399502	139950.1	2
0	1401078	140107.7	105
0	1403082	140308.1	26
0	1405264	140526.3	27
0	1407918	140791.7	37
0	1408584	140858.3	134
0	1408994	140899.3	65
0	1409532	140953.1	79
0	1409776	140977.5	16
0	1411590	141158.9	65
0	1413676	141367.5	17
0	1414608	141460.7	11
0	1415046	141504.5	46
0	1416090	141608.9	3
0	1418262	141826.1	193
0	1419514	141951.3	5
0	1420796	142079.5	102
0	1420906	142090.5	19
0	1422492	142249.1	54
0	1423904	142390.3	117
0	1424700	142469.9	168
0	1424808	142480.7	99
0	1425112	142511.1	81
0	1425544	142554.3	50
0	1426248	142624.7	18
0	1429458	142945.7	52
0	1429792	142979.1	48
0	1431124	143112.3	2
0	1431548	143154.7	48
0	1431608	143160.7	54
0	1433968	143396.7	9
0	1434998	143499.7	67
0	1437700	143769.9	135
0	1438666	143866.5	94
0	1438810	143880.9	15
0	1439206	143920.5	42
0	1441040	144103.9	51
0	1441176	144117.5	102
0	1441984	144198.3	31
0	1442872	144287.1	2
0	1444162	144416.1	243
0	1447318	144731.7	103
0	1447602	144760.1	27
0	1448160	144815.9	113
0	1448936	144893.5	129
0	1452078	145207.7	71
0	1452344	145234.3	17
0	1455850	145584.9	48
0	1456994	145699.3	36
0	1457772	145777.1	14
0	1458058	145805.7	25
0	1459902	145990.1	16
0	1460960	146095.9	2
0	1462552	146255.1	57
0	1463166	146316.5	6
0	1464112	146411.1	62
0	1466870	146686.9	25
0	1468294	146829.3	67
0	1468982	146898.1	110
0	1470632	147063.1	26
0	1474274	147427.3	54
0	1474948	147494.7	71
0	1475472	147547.1	78
0	1483392	148339.1	79
0	1483824	148382.3	33
0	1485890	148588.9	78
0	1486758	148675.7	252
0	1487014	148701.3	58
0	1487780	148777.9	14
0	1488340	148833.9	82
0	1490854	149085.3	43
0	1491154	149115.3	109
0	1493478	149347.7	4
0	1494002	149400.1	10
0	1494162	149416.1	20
0	1494764	149476.3	22
0	1495224	149522.3	207
0	1496998	149699.7	70
0	1497056	149705.5	53
0	1498568	149856.7	81
0	1499356	149935.5	74
0	1501038	150103.7	213
0	1503050	150304.9	8
0	1503528	150352.7	22
0	1503926	150392.5	2
0	1504980	150497.9	31
0	1506488	150648.7	18
0	1506610	150660.9	10
0	1507038	150703.7	139
0	1507714	150771.3	81
0	1508108	150810.7	33
0	1510808	151080.7	105
0	1511086	151108.5	11
0	1514136	151413.5	41
0	1514484	151448.3	148
0	1515408	151540.7	115
0	1520958	152095.7	47
0	1523782	152378.1	314
0	1524698	152469.7	24
0	1527008	152700.7	4
0	1528316	152831.5	3
0	1529038	152903.7	56
0	1529296	152929.5	56
0	1531440	153143.9	104
0	1531634	153163.3	1
0	1533122	153312.1	17
0	1533858	153385.7	50
0	1534584	153458.3	13
0	1535422	153542.1	44
0	1535960	153595.9	21
0	1536144	153614.3	54
0	1537658	153765.7	119
0	1538526	153852.5	3
0	1542194	154219.3	26
0	1542532	154253.1	17
0	1544332	154433.1	24
0	1547206	154720.5	38
0	1548002	154800.1	47
0	1548300	154829.9	40
0	1548614	154861.3	5
0	1552204	155220.3	74
0	1553388	155338.7	23
0	1555420	155541.9	48
0	1556128	155612.7	256
0	1556874	155687.3	117
0	1557262	155726.1	18
0	1558292	155829.1	189
0	1560596	156059.5	114
0	1562026	156202.5	18
0	1562988	156298.7	20
0	1563064	156306.3	55
0	1563894	156389.3	43
0	1564276	156427.5	99
0	1565568	156556.7	12
0	1567182	156718.1	48
0	1568110	156810.9	20
0	1569464	156946.3	98
0	1570614	157061.3	50
0	1570948	157094.7	4
0	1573196	157319.5	5
0	1574186	157418.5	84
0	1575396	157539.5	7
0	1576994	157699.3	66
0	1577906	157790.5	30
0	1578534	157853.3	38
0	1580748	158074.7	19
0	1584996	158499.5	75
0	1586640	158663.9	11
0	1586712	158671.1	50
0	1587316	158731.5	50
0	1587846	158784.5	8
0	1589076	158907.5	21
0	1591086	159108.5	26
0	1591640	159163.9	6
0	1591714	159171.3	20
0	1592360	159235.9	17
0	1593328	159332.7	103
0	1594738	159473.7	90
0	1595200	159519.9	13
0	1596710	159670.9	49
0	1599008	159900.7	25
0	1602330	160232.9	38
0	1603572	160357.1	2
0	1605610	160560.9	147
0	1607314	160731.3	176
0	1612078	161207.7	8
0	1613652	161365.1	118
0	1616110	161610.9	4
0	1617408	161740.7	33
0	1617536	161753.5	59
0	1617586	161758.5	40
0	1618870	161886.9	14
0	1620832	162083.1	3
0	1623176	162317.5	84
0	1623904	162390.3	163
0	1624988	162498.7	60
0	1627014	162701.3	73
0	1628666	162866.5	2
0	1628810	162880.9	108
0	1632826	163282.5	7
0	1637500	163749.9	64
0	1638340	163833.9	21
0	1639928	163992.7	100
0	1641404	164140.3	2
0	1642494	164249.3	30
0	1645072	164507.1	18
0	1645098	164509.7	24
0	1648998	164899.7	83
0	1649794	164979.3	11
0	1650634	165063.3	15
0	1652318	165231.7	24
0	1655250	165524.9	100
0	1655466	165546.5	161
0	1655882	165588.1	51
0	1656688	165668.7	41
0	1657222	165722.1	35
0	1657412	165741.1	11
0	1662128	166212.7	3
0	1662210	166220.9	6
0	1662246	166224.5	7
0	1663928	166392.7	34
0	1667280	166727.9	39
0	1669376	166937.5	78
0	1669510	166950.9	5
0	1670908	167090.7	2
0	1671404	167140.3	2
0	1673334	167333.3	18
0	1673628	167362.7	72
0	1675790	167578.9	78
0	1676456	167645.5	113
0	1678068	167806.7	60
0	1678888	167888.7	10
0	1680352	168035.1	108
0	1681004	168100.3	37
0	1685902	168590.1	28
0	1686894	168689.3	54
0	1687176	168717.5	37
0	1689454	168945.3	79
0	1693758	169375.7	58
0	1694032	169403.1	35
0	1694550	169454.9	78
0	1699716	169971.5	38
0	1700644	170064.3	137
0	1701098	170109.7	4
0	1702528	170252.7	84