version 3
run General-113-20230611-05:41:41-416630
attr configname General
attr datetime 20230611-05:41:41
attr datetimef 20230611-054141
attr experiment General
attr inifile omnetpp.ini
attr iterationvars $N=88
attr iterationvarsd N=88
attr iterationvarsf N=88-
attr measurement $N=88
attr network LN
attr processid 416630
attr repetition 1
attr replication #1
attr resultdir results
attr runnumber 113
attr seedset 113
itervar N 88
config network LN
config sim-time-limit 250000s
config **.tic[*].hopCount.result-recording-modes +vector
config *.numCentralNodes 88
config repeat 4

vector 0 LN.lnd[6] hopCount:vector ETV
attr interpolationmode none
attr recordingmode vector
attr source arrival
attr title "hop count"
vector 1 LN.lnd[12] hopCount:vector ETV
attr interpolationmode none
attr recordingmode vector
attr source arrival
attr title "hop count"
vector 2 LN.lnd[5] hopCount:vector ETV
attr interpolationmode none
attr recordingmode vector
attr source arrival
attr title "hop count"
vector 3 LN.lnd[15] hopCount:vector ETV
attr interpolationmode none
attr recordingmode vector
attr source arrival
attr title "hop count"
vector 4 LN.lnd[1] hopCount:vector ETV
attr interpolationmode none
attr recordingmode vector
attr source arrival
attr title "hop count"
vector 5 LN.lnd[10] hopCount:vector ETV
attr interpolationmode none
attr recordingmode vector
attr source arrival
attr title "hop count"
vector 6 LN.lnd[0] hopCount:vector ETV
attr interpolationmode none
attr recordingmode vector
attr source arrival
attr title "hop count"
vector 7 LN.lnd[16] hopCount:vector ETV
attr interpolationmode none
attr recordingmode vector
attr source arrival
attr title "hop count"
vector 8 LN.lnd[11] hopCount:vector ETV
attr interpolationmode none
attr recordingmode vector
attr source arrival
attr title "hop count"
vector 9 LN.lnd[9] hopCount:vector ETV
attr interpolationmode none
attr recordingmode vector
attr source arrival
attr title "hop count"
vector 10 LN.lnd[19] hopCount:vector ETV
attr interpolationmode none
attr recordingmode vector
attr source arrival
attr title "hop count"
vector 11 LN.lnd[7] hopCount:vector ETV
attr interpolationmode none
attr recordingmode vector
attr source arrival
attr title "hop count"
vector 12 LN.lnd[3] hopCount:vector ETV
attr interpolationmode none
attr recordingmode vector
attr source arrival
attr title "hop count"
vector 13 LN.lnd[13] hopCount:vector ETV
attr interpolationmode none
attr recordingmode vector
attr source arrival
attr title "hop count"
vector 14 LN.lnd[8] hopCount:vector ETV
attr interpolationmode none
attr recordingmode vector
attr source arrival
attr title "hop count"
vector 15 LN.lnd[18] hopCount:vector ETV
attr interpolationmode none
attr recordingmode vector
attr source arrival
attr title "hop count"
vector 16 LN.lnd[14] hopCount:vector ETV
attr interpolationmode none
attr recordingmode vector
attr source arrival
attr title "hop count"
vector 17 LN.lnd[17] hopCount:vector ETV
attr interpolationmode none
attr recordingmode vector
attr source arrival
attr title "hop count"
vector 18 LN.lnd[4] hopCount:vector ETV
attr interpolationmode none
attr recordingmode vector
attr source arrival
attr title "hop count"
vector 19 LN.lnd[2] hopCount:vector ETV
attr interpolationmode none
attr recordingmode vector
attr source arrival
attr title "hop count"
0	44	4.3	43
0	3688	368.7	3
0	4862	486.1	244
0	5152	515.1	113
0	5192	519.1	18
0	6260	625.9	13
0	6924	692.3	22
0	7224	722.3	13
0	7714	771.3	144
0	8124	812.3	23
0	12482	1248.1	14
0	15142	1514.1	15
0	15986	1598.5	107
0	16102	1610.1	20
0	17602	1760.1	140
0	18386	1838.5	5
0	20728	2072.7	316
0	20734	2073.3	5
0	21574	2157.3	61
0	22172	2217.1	11
0	22376	2237.5	5
0	23612	2361.1	31
0	23834	2383.3	35
0	24488	2448.7	75
0	25928	2592.7	172
0	26372	2637.1	128
0	28052	2805.1	2
0	28468	2846.7	53
0	29368	2936.7	69
0	29776	2977.5	70
0	30492	3049.1	5
0	30852	3085.1	186
0	33458	3345.7	10
0	34046	3404.5	18
0	36094	3609.3	12
0	36382	3638.1	155
0	37112	3711.1	1
0	38096	3809.5	81
0	40340	4033.9	164
0	40748	4074.7	60
0	42506	4250.5	3
0	42918	4291.7	2
0	45250	4524.9	13
0	46192	4619.1	107
0	49198	4919.7	44
0	49474	4947.3	106
0	53232	5323.1	24
0	53356	5335.5	46
0	53394	5339.3	4
0	53746	5374.5	36
0	53980	5397.9	15
0	55550	5554.9	64
0	55970	5596.9	49
0	59924	5992.3	39
0	61476	6147.5	12
0	62174	6217.3	32
0	63666	6366.5	49
0	65214	6521.3	53
0	66024	6602.3	57
0	66042	6604.1	8
0	66592	6659.1	62
0	68888	6888.7	3
0	69380	6937.9	32
0	69646	6964.5	150
0	70158	7015.7	278
0	70294	7029.3	28
0	71990	7198.9	96
0	72086	7208.5	6
0	75246	7524.5	12
0	78176	7817.5	2
0	78530	7852.9	22
0	80602	8060.1	52
0	81934	8193.3	5
0	82600	8259.9	82
0	85240	8523.9	86
0	86852	8685.1	2
0	90844	9084.3	1
0	91422	9142.1	270
0	91494	9149.3	25
0	95432	9543.1	2
0	98160	9815.9	36
0	99542	9954.1	25
0	101938	10193.7	90
0	103130	10312.9	19
0	107584	10758.3	160
0	108062	10806.1	11
0	109110	10910.9	61
0	110206	11020.5	101
0	114752	11475.1	99
0	116342	11634.1	34
0	121258	12125.7	48
0	122158	12215.7	28
0	125920	12591.9	130
0	126586	12658.5	73
0	127490	12748.9	156
0	128088	12808.7	13
0	131278	13127.7	5
0	131810	13180.9	48
0	131878	13187.7	21
0	132436	13243.5	6
0	134456	13445.5	141
0	136536	13653.5	57
0	137560	13755.9	7
0	138900	13889.9	32
0	142004	14200.3	51
0	145338	14533.7	38
0	146372	14637.1	20
0	147002	14700.1	83
0	148158	14815.7	126
0	149094	14909.3	35
0	152354	15235.3	4
0	154192	15419.1	113
0	155902	15590.1	177
0	156476	15647.5	34
0	162590	16258.9	13
0	165092	16509.1	147
0	165632	16563.1	6
0	165702	16570.1	14
0	165902	16590.1	36
0	167346	16734.5	76
0	171644	17164.3	7
0	172380	17237.9	107
0	173420	17341.9	5
0	174864	17486.3	8
0	175576	17557.5	6
0	177236	17723.5	67
0	177608	17760.7	21
0	181136	18113.5	70
0	181692	18169.1	3
0	181854	18185.3	94
0	185586	18558.5	152
0	186076	18607.5	34
0	186148	18614.7	49
0	188924	18892.3	29
0	189254	18925.3	54
0	190082	19008.1	127
0	190426	19042.5	76
0	191410	19140.9	62
0	193182	19318.1	143
0	193690	19368.9	208
0	194622	19462.1	156
0	195522	19552.1	13
0	199554	19955.3	9
0	200318	20031.7	50
0	200774	20077.3	47
0	201458	20145.7	110
0	201580	20157.9	22
0	202174	20217.3	174
0	202238	20223.7	27
0	205436	20543.5	4
0	206692	20669.1	30
0	208506	20850.5	37
0	210746	21074.5	92
0	211216	21121.5	15
0	213258	21325.7	3
0	213350	21334.9	28
0	213772	21377.1	59
0	213856	21385.5	34
0	214944	21494.3	15
0	218012	21801.1	24
0	219012	21901.1	57
0	223140	22313.9	17
0	224136	22413.5	3
0	225272	22527.1	113
0	229094	22909.3	111
0	230086	23008.5	63
0	230348	23034.7	23
0	232410	23240.9	15
0	233170	23316.9	39
0	234230	23422.9	89
0	238048	23804.7	43
0	238764	23876.3	17
0	238850	23884.9	6
0	239082	23908.1	140
0	241468	24146.7	56
0	242138	24213.7	30
0	242344	24234.3	139
0	245266	24526.5	13
0	246488	24648.7	42
0	249892	24989.1	89
0	250554	25055.3	213
0	250606	25060.5	15
0	252038	25203.7	27
0	256422	25642.1	77
0	257216	25721.5	9
0	257574	25757.3	18
0	258056	25805.5	7
0	259894	25989.3	72
0	262466	26246.5	22
0	262524	26252.3	2
0	262756	26275.5	39
0	264428	26442.7	35
0	264960	26495.9	94
0	266002	26600.1	58
0	269458	26945.7	12
0	270682	27068.1	64
0	270800	27079.9	62
0	271782	27178.1	104
0	272524	27252.3	55
0	274294	27429.3	14
0	276434	27643.3	3
0	277194	27719.3	27
0	281542	28154.1	72
0	283594	28359.3	4
0	285570	28556.9	39
0	287508	28750.7	101
0	287748	28774.7	9
0	288800	28879.9	89
0	288922	28892.1	33
0	289676	28967.5	174
0	291554	29155.3	212
0	292306	29230.5	1
0	293716	29371.5	85
0	294402	29440.1	18
0	294776	29477.5	15
0	296322	29632.1	48
0	298528	29852.7	59
0	299180	29917.9	17
0	299190	29918.9	3
0	301376	30137.5	125
0	301634	30163.3	60
0	303894	30389.3	2
0	304458	30445.7	35
0	306868	30686.7	5
0	307266	30726.5	16
0	309006	30900.5	4
0	313908	31390.7	64
0	320252	32025.1	88
0	321514	32151.3	47
0	321820	32181.9	54
0	323142	32314.1	10
0	323730	32372.9	63
0	324746	32474.5	13
0	327148	32714.7	94
0	330312	33031.1	151
0	333332	33333.1	2
0	333558	33355.7	5
0	334144	33414.3	82
0	334722	33472.1	30
0	335508	33550.7	54
0	336132	33613.1	32
0	336510	33650.9	11
0	339910	33990.9	6
0	340658	34065.7	8
0	342454	34245.3	9
0	342754	34275.3	159
0	343644	34364.3	113
0	345290	34528.9	2
0	351094	35109.3	17
0	352356	35235.5	20
0	352860	35285.9	7
0	354438	35443.7	2
0	354608	35460.7	25
0	355048	35504.7	47
0	355526	35552.5	2
0	355682	35568.1	38
0	355790	35578.9	22
0	356198	35619.7	56
0	359162	35916.1	3
0	360152	36015.1	3
0	361326	36132.5	16
0	362906	36290.5	120
0	363698	36369.7	4
0	366492	36649.1	96
0	367724	36772.3	116
0	368154	36815.3	30
0	374188	37418.7	17
0	374608	37460.7	2
0	374982	37498.1	156
0	378254	37825.3	54
0	378578	37857.7	92
0	379630	37962.9	6
0	382460	38245.9	17
0	385556	38555.5	19
0	386622	38662.1	32
0	387206	38720.5	232
0	387672	38767.1	35
0	389242	38924.1	1
0	389598	38959.7	96
0	389874	38987.3	46
0	392004	39200.3	66
0	395926	39592.5	112
0	396084	39608.3	95
0	399920	39991.9	101
0	401270	40126.9	132
0	401408	40140.7	2
0	403790	40378.9	272
0	406308	40630.7	149
0	407512	40751.1	43
0	410316	41031.5	101
0	415958	41595.7	2
0	417416	41741.5	10
0	419920	41991.9	114
0	421568	42156.7	36
0	421666	42166.5	12
0	425228	42522.7	7
0	426504	42650.3	25
0	427810	42780.9	142
0	432184	43218.3	72
0	433882	43388.1	4
0	434014	43401.3	49
0	435700	43569.9	105
0	437124	43712.3	3
0	442576	44257.5	82
0	444210	44420.9	21
0	446462	44646.1	42
0	447434	44743.3	128
0	447908	44790.7	3
0	451384	45138.3	71
0	451574	45157.3	29
0	451716	45171.5	20
0	459166	45916.5	10
0	460802	46080.1	49
0	463242	46324.1	3
0	464734	46473.3	32
0	466826	46682.5	25
0	468666	46866.5	5
0	470016	47001.5	54
0	471956	47195.5	1
0	472082	47208.1	13
0	472616	47261.5	98
0	473068	47306.7	48
0	475620	47561.9	31
0	477424	47742.3	13
0	478384	47838.3	2
0	480370	48036.9	34
0	482000	48199.9	59
0	483716	48371.5	2
0	484542	48454.1	12
0	491464	49146.3	22
0	496494	49649.3	19
0	497154	49715.3	4
0	498132	49813.1	2
0	498398	49839.7	6
0	498594	49859.3	33
0	499000	49899.9	105
0	501266	50126.5	4
0	502928	50292.7	9
0	503470	50346.9	7
0	505916	50591.5	111
0	511358	51135.7	47
0	512248	51224.7	32
0	512650	51264.9	57
0	514246	51424.5	59
0	515138	51513.7	50
0	515928	51592.7	9
0	516228	51622.7	21
0	517466	51746.5	11
0	520630	52062.9	117
0	521220	52121.9	76
0	521732	52173.1	49
0	523960	52395.9	173
0	525014	52501.3	111
0	527540	52753.9	22
0	530112	53011.1	21
0	531108	53110.7	16
0	531988	53198.7	31
0	532914	53291.3	5
0	533200	53319.9	35
0	534170	53416.9	37
0	534404	53440.3	17
0	535180	53517.9	15
0	537108	53710.7	54
0	537916	53791.5	5
0	541294	54129.3	222
0	543066	54306.5	37
0	543484	54348.3	22
0	543680	54367.9	54
0	545018	54501.7	83
0	547952	54795.1	13
0	548044	54804.3	43
0	548604	54860.3	6
0	550228	55022.7	1
0	550572	55057.1	171
0	551188	55118.7	12
0	552386	55238.5	65
0	552682	55268.1	66
0	554006	55400.5	2
0	558654	55865.3	43
0	559358	55935.7	95
0	559626	55962.5	14
0	559930	55992.9	27
0	560666	56066.5	14
0	563894	56389.3	188
0	564184	56418.3	17
0	564634	56463.3	80
0	564896	56489.5	15
0	568408	56840.7	150
0	570620	57061.9	15
0	572544	57254.3	31
0	572722	57272.1	169
0	572860	57285.9	17
0	574006	57400.5	16
0	575204	57520.3	123
0	580152	58015.1	50
0	581024	58102.3	4
0	585054	58505.3	153
0	585382	58538.1	6
0	586306	58630.5	63
0	588764	58876.3	4
0	588932	58893.1	9
0	589906	58990.5	31
0	590448	59044.7	13
0	594094	59409.3	2
0	594454	59445.3	88
0	596052	59605.1	1
0	604304	60430.3	13
0	604436	60443.5	49
0	609204	60920.3	55
0	609418	60941.7	25
0	609694	60969.3	15
0	611810	61180.9	215
0	611814	61181.3	2
0	612530	61252.9	197
0	613198	61319.7	4
0	613244	61324.3	7
0	614918	61491.7	29
0	615246	61524.5	88
0	615362	61536.1	85
0	616390	61638.9	28
0	617232	61723.1	39
0	617988	61798.7	11
0	618396	61839.5	2
0	619212	61921.1	90
0	619654	61965.3	15
0	620020	62001.9	37
0	621466	62146.5	3
0	621804	62180.3	81
0	624752	62475.1	96
0	625298	62529.7	57
0	626690	62668.9	16
0	627940	62793.9	124
0	628168	62816.7	171
0	628300	62829.9	69
0	629886	62988.5	52
0	634640	63463.9	8
0	635230	63522.9	28
0	639160	63915.9	47
0	639776	63977.5	38
0	643674	64367.3	21
0	646070	64606.9	28
0	647780	64777.9	21
0	651418	65141.7	115
0	651990	65198.9	268
0	653050	65304.9	29
0	653462	65346.1	39
0	653896	65389.5	51
0	654438	65443.7	45
0	654728	65472.7	168
0	656884	65688.3	122
0	660290	66028.9	137
0	660658	66065.7	55
0	662178	66217.7	75
0	663468	66346.7	25
0	665704	66570.3	39
0	665958	66595.7	180
0	666248	66624.7	1
0	666424	66642.3	2
0	667332	66733.1	130
0	667752	66775.1	34
0	669814	66981.3	147
0	669932	66993.1	79
0	671264	67126.3	66
0	671926	67192.5	72
0	671984	67198.3	14
0	675882	67588.1	28
0	678906	67890.5	152
0	682946	68294.5	50
0	683102	68310.1	22
0	686664	68666.3	140
0	686836	68683.5	76
0	687026	68702.5	21
0	687976	68797.5	3
0	688988	68898.7	41
0	689730	68972.9	30
0	689766	68976.5	35
0	691158	69115.7	311
0	692048	69204.7	97
0	694856	69485.5	5
0	696084	69608.3	105
0	696382	69638.1	23
0	697464	69746.3	158
0	704012	70401.1	59
0	705426	70542.5	31
0	705584	70558.3	38
0	706012	70601.1	50
0	709032	70903.1	246
0	709240	70923.9	4
0	709642	70964.1	40
0	710248	71024.7	2
0	711272	71127.1	17
0	713104	71310.3	187
0	713948	71394.7	170
0	714884	71488.3	13
0	715194	71519.3	63
0	716738	71673.7	96
0	716836	71683.5	15
0	721306	72130.5	5
0	721836	72183.5	19
0	722516	72251.5	111
0	725740	72573.9	1
0	726844	72684.3	134
0	730584	73058.3	234
0	731416	73141.5	81
0	731922	73192.1	123
0	732454	73245.3	5
0	733788	73378.7	93
0	734482	73448.1	53
0	734644	73464.3	21
0	735054	73505.3	14
0	735862	73586.1	20
0	737674	73767.3	149
0	738432	73843.1	86
0	738862	73886.1	81
0	739200	73919.9	10
0	740532	74053.1	2
0	741508	74150.7	157
0	742600	74259.9	67
0	744578	74457.7	125
0	745126	74512.5	37
0	747120	74711.9	10
0	748618	74861.7	26
0	751624	75162.3	7
0	760214	76021.3	91
0	762354	76235.3	9
0	762864	76286.3	76
0	764912	76491.1	2
0	766306	76630.5	11
0	766378	76637.7	1
0	767304	76730.3	95
0	768174	76817.3	49
0	772298	77229.7	12
0	773216	77321.5	71
0	774870	77486.9	44
0	776144	77614.3	19
0	777534	77753.3	2
0	777892	77789.1	125
0	778510	77850.9	131
0	779074	77907.3	125
0	780282	78028.1	18
0	780566	78056.5	133
0	781002	78100.1	13
0	781248	78124.7	117
0	781438	78143.7	9
0	781494	78149.3	3
0	782356	78235.5	79
0	785098	78509.7	1
0	785692	78569.1	22
0	786390	78638.9	26
0	786818	78681.7	3
0	789188	78918.7	4
0	789454	78945.3	89
0	792892	79289.1	10
0	795838	79583.7	4
0	797586	79758.5	44
0	798000	79799.9	78
0	801272	80127.1	13
0	801532	80153.1	5
0	802056	80205.5	17
0	802384	80238.3	6
0	805372	80537.1	12
0	805584	80558.3	10
0	806116	80611.5	35
0	807184	80718.3	63
0	808050	80804.9	25
0	809656	80965.5	53
0	812430	81242.9	203
0	813426	81342.5	91
0	813648	81364.7	27
0	814400	81439.9	39
0	821344	82134.3	25
0	822782	82278.1	63
0	822938	82293.7	113
0	823996	82399.5	9
0	829108	82910.7	27
0	829460	82945.9	67
0	831910	83190.9	50
0	832960	83295.9	2
0	834328	83432.7	6
0	834370	83436.9	1
0	835862	83586.1	157
0	837708	83770.7	76
0	838286	83828.5	41
0	839328	83932.7	221
0	839770	83976.9	35
0	840840	84083.9	71
0	842068	84206.7	134
0	843012	84301.1	57
0	844844	84484.3	188
0	846890	84688.9	24
0	850456	85045.5	24
0	851822	85182.1	22
0	852180	85217.9	6
0	853454	85345.3	263
0	853810	85380.9	28
0	855324	85532.3	3
0	857862	85786.1	131
0	858216	85821.5	127
0	858614	85861.3	16
0	859014	85901.3	13
0	859330	85932.9	40
0	860748	86074.7	41
0	861018	86101.7	3
0	862000	86199.9	129
0	862316	86231.5	51
0	863914	86391.3	8
0	864112	86411.1	33
0	865146	86514.5	95
0	867352	86735.1	79
0	868088	86808.7	46
0	868730	86872.9	55
0	868994	86899.3	126
0	869046	86904.5	20
0	870610	87060.9	59
0	871896	87189.5	27
0	873818	87381.7	56
0	874124	87412.3	70
0	877036	87703.5	3
0	877726	87772.5	29
0	879628	87962.7	7
0	880618	88061.7	10
0	881614	88161.3	36
0	884920	88491.9	44
0	887790	88778.9	3
0	888096	88809.5	29
0	889386	88938.5	92
0	891714	89171.3	47
0	892520	89251.9	61
0	897264	89726.3	9
0	898364	89836.3	2
0	898380	89837.9	1
0	900802	90080.1	2
0	903856	90385.5	23
0	904498	90449.7	30
0	905238	90523.7	121
0	906044	90604.3	34
0	906334	90633.3	62
0	907050	90704.9	49
0	909024	90902.3	53
0	909444	90944.3	16
0	913374	91337.3	14
0	914142	91414.1	6
0	918164	91816.3	14
0	918860	91885.9	40
0	919484	91948.3	2
0	919594	91959.3	17
0	919810	91980.9	9
0	920494	92049.3	21
0	924050	92404.9	38
0	927044	92704.3	9
0	932552	93255.1	16
0	935128	93512.7	8
0	935800	93579.9	57
0	936682	93668.1	62
0	937944	93794.3	89
0	939282	93928.1	7
0	939678	93967.7	9
0	939754	93975.3	39
0	940894	94089.3	130
0	941050	94104.9	17
0	941166	94116.5	1
0	942562	94256.1	2
0	943752	94375.1	13
0	946230	94622.9	26
0	946750	94674.9	8
0	947096	94709.5	16
0	952010	95200.9	11
0	952848	95284.7	32
0	954546	95454.5	184
0	955600	95559.9	5
0	955818	95581.7	130
0	957014	95701.3	69
0	958976	95897.5	2
0	960714	96071.3	12
0	961448	96144.7	40
0	961660	96165.9	39
0	962842	96284.1	154
0	966936	96693.5	10
0	968230	96822.9	37
0	970038	97003.7	10
0	970892	97089.1	96
0	973722	97372.1	20
0	974544	97454.3	1
0	975410	97540.9	149
0	976520	97651.9	181
0	977478	97747.7	9
0	978686	97868.5	110
0	979676	97967.5	28
0	979956	97995.5	37
0	980310	98030.9	74
0	981076	98107.5	44
0	982684	98268.3	3
0	983128	98312.7	107
0	983154	98315.3	9
0	987256	98725.5	6
0	990310	99030.9	143
0	990662	99066.1	46
0	991930	99192.9	24
0	992582	99258.1	10
0	992768	99276.7	93
0	993298	99329.7	28
0	993534	99353.3	49
0	994436	99443.5	64
0	995510	99550.9	60
0	996346	99634.5	1
0	998692	99869.1	30
0	1000246	100024.5	121
0	1003022	100302.1	7
0	1004404	100440.3	56
0	1007192	100719.1	13
0	1007636	100763.5	6
0	1008428	100842.7	58
0	1009878	100987.7	7
0	1009948	100994.7	29
0	1013682	101368.1	62
0	1016652	101665.1	121
0	1016784	101678.3	50
0	1018084	101808.3	5
0	1018516	101851.5	84
0	1019032	101903.1	282
0	1019070	101906.9	4
0	1020378	102037.7	79
0	1020802	102080.1	74
0	1021606	102160.5	157
0	1021612	102161.1	2
0	1023492	102349.1	199
0	1023836	102383.5	32
0	1024650	102464.9	7
0	1025254	102525.3	42
0	1025556	102555.5	50
0	1025924	102592.3	91
0	1030078	103007.7	338
0	1030474	103047.3	17
0	1030842	103084.1	91
0	1034440	103443.9	8
0	1035216	103521.5	22
0	1039120	103911.9	1
0	1040174	104017.3	55
0	1040964	104096.3	67
0	1042004	104200.3	232
0	1042512	104251.1	16
0	1042966	104296.5	3
0	1045182	104518.1	230
0	1046054	104605.3	21
0	1050344	105034.3	38
0	1050940	105093.9	77
0	1052638	105263.7	289
0	1054992	105499.1	18
0	1057698	105769.7	2
0	1058966	105896.5	27
0	1061544	106154.3	45
0	1062138	106213.7	12
0	1062858	106285.7	63
0	1063062	106306.1	166
0	1064224	106422.3	219
0	1064682	106468.1	12
0	1065186	106518.5	29
0	1065742	106574.1	67
0	1066106	106610.5	93
0	1067060	106705.9	12
0	1068556	106855.5	27
0	1070664	107066.3	42
0	1073274	107327.3	33
0	1073514	107351.3	9
0	1078546	107854.5	133
0	1078850	107884.9	92
0	1079658	107965.7	70
0	1080696	108069.5	32
0	1081496	108149.5	22
0	1082882	108288.1	3
0	1082988	108298.7	26
0	1084036	108403.5	41
0	1084090	108408.9	44
0	1084462	108446.1	56
0	1084682	108468.1	138
0	1085594	108559.3	24
0	1085922	108592.1	22
0	1087148	108714.7	3
0	1090696	109069.5	2
0	1092174	109217.3	3
0	1093514	109351.3	127
0	1094280	109427.9	50
0	1094998	109499.7	7
0	1098224	109822.3	165
0	1098494	109849.3	27
0	1100968	110096.7	66
0	1101756	110175.5	79
0	1102540	110253.9	58
0	1103322	110332.1	32
0	1104698	110469.7	27
0	1105002	110500.1	12
0	1105782	110578.1	1
0	1109562	110956.1	11
0	1110002	111000.1	142
0	1110144	111014.3	84
0	1111464	111146.3	20
0	1112186	111218.5	220
0	1115858	111585.7	49
0	1116430	111642.9	103
0	1116848	111684.7	258
0	1117562	111756.1	10
0	1119622	111962.1	148
0	1120912	112091.1	71
0	1121322	112132.1	4
0	1122144	112214.3	151
0	1123042	112304.1	103
0	1124348	112434.7	110
0	1124474	112447.3	41
0	1125028	112502.7	8
0	1125828	112582.7	42
0	1126668	112666.7	240
0	1129460	112945.9	4
0	1129808	112980.7	21
0	1132744	113274.3	2
0	1132822	113282.1	24
0	1134514	113451.3	21
0	1134532	113453.1	10
0	1135240	113523.9	12
0	1135410	113540.9	58
0	1137056	113705.5	106
0	1140554	114055.3	53
0	1141454	114145.3	1
0	1142510	114250.9	16
0	1145498	114549.7	133
0	1145656	114565.5	128
0	1146560	114655.9	30
0	1147296	114729.5	175
0	1147534	114753.3	9
0	1153590	115358.9	4
0	1155370	115536.9	7
0	1156946	115694.5	67
0	1157116	115711.5	31
0	1159780	115977.9	3
0	1160610	116060.9	283
0	1160722	116072.1	30
0	1161398	116139.7	60
0	1162846	116284.5	140
0	1163018	116301.7	96
0	1164500	116449.9	58
0	1164634	116463.3	50
0	1164978	116497.7	81
0	1166542	116654.1	53
0	1166748	116674.7	1
0	1166804	116680.3	15
0	1167974	116797.3	18
0	1168190	116818.9	29
0	1170058	117005.7	224
0	1171030	117102.9	66
0	1171304	117130.3	73
0	1171826	117182.5	13
0	1173678	117367.7	158
0	1177340	117733.9	8
0	1177694	117769.3	8
0	1178986	117898.5	94
0	1179994	117999.3	124
0	1180232	118023.1	6
0	1180986	118098.5	4
0	1182176	118217.5	47
0	1183362	118336.1	113
0	1183510	118350.9	26
0	1185386	118538.5	118
0	1185498	118549.7	77
0	1185962	118596.1	22
0	1185994	118599.3	3
0	1186170	118616.9	19
0	1186374	118637.3	15
0	1187508	118750.7	24
0	1188246	118824.5	4
0	1193692	119369.1	81
0	1193834	119383.3	39
0	1195532	119553.1	3
0	1196536	119653.5	36
0	1197402	119740.1	75
0	1199312	119931.1	220
0	1201878	120187.7	38
0	1202324	120232.3	116
0	1203604	120360.3	73
0	1206848	120684.7	40
0	1206920	120691.9	4
0	1209208	120920.7	8
0	1209850	120984.9	9
0	1210654	121065.3	108
0	1216464	121646.3	31
0	1218472	121847.1	51
0	1220640	122063.9	5
0	1222230	122222.9	18
0	1222572	122257.1	33
0	1223376	122337.5	15
0	1223668	122366.7	14
0	1225118	122511.7	83
0	1225488	122548.7	235
0	1226060	122605.9	142
0	1227268	122726.7	51
0	1227620	122761.9	76
0	1231144	123114.3	22
0	1232958	123295.7	36
0	1235684	123568.3	50
0	1236428	123642.7	16
0	1237050	123704.9	67
0	1238480	123847.9	120
0	1239208	123920.7	9
0	1239574	123957.3	38
0	1239870	123986.9	5
0	1242584	124258.3	167
0	1243766	124376.5	25
0	1243900	124389.9	42
0	1245114	124511.3	57
0	1246598	124659.7	128
0	1246678	124667.7	27
0	1248596	124859.5	7
0	1249374	124937.3	102
0	1249482	124948.1	17
0	1250584	125058.3	102
0	1251046	125104.5	116
0	1252942	125294.1	2
0	1255254	125525.3	186
0	1257202	125720.1	4
0	1258034	125803.3	68
0	1259394	125939.3	74
0	1260098	126009.7	27
0	1262494	126249.3	269
0	1264246	126424.5	40
0	1266202	126620.1	25
0	1266906	126690.5	82
0	1269006	126900.5	39
0	1270554	127055.3	2
0	1270782	127078.1	95
0	1271464	127146.3	278
0	1273522	127352.1	14
0	1276044	127604.3	35
0	1277174	127717.3	2
0	1279130	127912.9	2
0	1279910	127990.9	66
0	1280192	128019.1	192
0	1280976	128097.5	153
0	1282386	128238.5	5
0	1282566	128256.5	57
0	1282656	128265.5	31
0	1282680	128267.9	3
0	1283436	128343.5	191
0	1283516	128351.5	40
0	1284822	128482.1	6
0	1286588	128658.7	179
0	1289872	128987.1	199
0	1290694	129069.3	47
0	1291762	129176.1	95
0	1292246	129224.5	81
0	1294738	129473.7	61
0	1295836	129583.5	9
0	1296350	129634.9	82
0	1298080	129807.9	131
0	1298406	129840.5	38
0	1300302	130030.1	89
0	1300642	130064.1	1
0	1304526	130452.5	87
0	1304940	130493.9	10
0	1306304	130630.3	2
0	1307188	130718.7	112
0	1307612	130761.1	70
0	1312510	131250.9	11
0	1313048	131304.7	60
0	1315600	131559.9	202
0	1317948	131794.7	49
0	1318238	131823.7	15
0	1318830	131882.9	8
0	1320098	132009.7	36
0	1320828	132082.7	9
0	1322434	132243.3	9
0	1322906	132290.5	65
0	1323388	132338.7	110
0	1323864	132386.3	33
0	1325674	132567.3	6
0	1328644	132864.3	158
0	1329392	132939.1	51
0	1329790	132978.9	92
0	1330048	133004.7	14
0	1330334	133033.3	6
0	1330926	133092.5	10
0	1333180	133317.9	24
0	1336786	133678.5	16
0	1338330	133832.9	78
0	1339644	133964.3	56
0	1344204	134420.3	139
0	1346654	134665.3	1
0	1346994	134699.3	95
0	1349130	134912.9	39
0	1351206	135120.5	1
0	1353908	135390.7	20
0	1357530	135752.9	6
0	1358794	135879.3	59
0	1359300	135929.9	29
0	1360906	136090.5	39
0	1362884	136288.3	35
0	1365116	136511.5	10
0	1366892	136689.1	77
0	1369232	136923.1	154
0	1371516	137151.5	48
0	1372174	137217.3	318
0	1372560	137255.9	5
0	1372880	137287.9	221
0	1375682	137568.1	118
0	1375990	137598.9	21
0	1378362	137836.1	45
0	1378458	137845.7	25
0	1379514	137951.3	1
0	1381694	138169.3	84
0	1382746	138274.5	22
0	1383638	138363.7	3
0	1383964	138396.3	43
0	1385126	138512.5	16
0	1386292	138629.1	37
0	1386598	138659.7	128
0	1388628	138862.7	19
0	1391728	139172.7	161
0	1394148	139414.7	35
0	1394546	139454.5	60
0	1394788	139478.7	52
0	1398496	139849.5	2
0	1399090	139908.9	55
0	1399410	139940.9	7
0	1400954	140095.3	143
0	1403474	140347.3	7
0	1408488	140848.7	42
0	1409016	140901.5	122
0	1409988	140998.7	84
0	1410086	141008.5	24
0	1410116	141011.5	12
0	1415218	141521.7	65
0	1415718	141571.7	6
0	1416892	141689.1	55
0	1416930	141692.9	12
0	1419318	141931.7	17
0	1420736	142073.5	129
0	1425110	142510.9	70
0	1425444	142544.3	75
0	1426768	142676.7	83
0	1427916	142791.5	66
0	1428134	142813.3	7
0	1430190	143018.9	3
0	1431048	143104.7	37
0	1431580	143157.9	155
0	1431748	143174.7	26
0	1436628	143662.7	3
0	1438906	143890.5	72
0	1439130	143912.9	12
0	1441286	144128.5	54
0	1442188	144218.7	233
0	1444284	144428.3	54
0	1448552	144855.1	87
0	1449088	144908.7	4
0	1449194	144919.3	25
0	1450570	145056.9	7
0	1451462	145146.1	12
0	1453380	145337.9	35
0	1453598	145359.7	76
0	1455860	145585.9	5
0	1455982	145598.1	59
0	1456476	145647.5	5
0	1456714	145671.3	4
0	1457522	145752.1	27
0	1458886	145888.5	9
0	1462250	146224.9	53
0	1462644	146264.3	2
0	1462998	146299.7	101
0	1463774	146377.3	137
0	1464568	146456.7	17
0	1465414	146541.3	22
0	1465732	146573.1	9
0	1465872	146587.1	42
0	1468342	146834.1	5
0	1469020	146901.9	27
0	1469924	146992.3	16
0	1469938	146993.7	12
0	1470386	147038.5	80
0	1472746	147274.5	55
0	1474008	147400.7	222
0	1475142	147514.1	38
0	1476278	147627.7	4
0	1476630	147662.9	6
0	1477158	147715.7	52
0	1477332	147733.1	46
0	1478724	147872.3	13
0	1479186	147918.5	105
0	1479800	147979.9	51
0	1480258	148025.7	58
0	1482238	148223.7	73
0	1483256	148325.5	10
0	1484938	148493.7	166
0	1485364	148536.3	57
0	1485542	148554.1	25
0	1486320	148631.9	6
0	1491590	149158.9	12
0	1492404	149240.3	28
0	1492650	149264.9	45
0	1494640	149463.9	29
0	1500078	150007.7	69
0	1500374	150037.3	135
0	1502456	150245.5	42
0	1502706	150270.5	4
0	1507376	150737.5	55
0	1508390	150838.9	89
0	1508816	150881.5	49
0	1509614	150961.3	44
0	1509636	150963.5	15
0	1513648	151364.7	3
0	1515394	151539.3	76
0	1515812	151581.1	58
0	1516878	151687.7	158
0	1518250	151824.9	89
0	1519238	151923.7	45
0	1519738	151973.7	226
0	1520122	152012.1	60
0	1521088	152108.7	33
0	1524694	152469.3	6
0	1528492	152849.1	85
0	1530314	153031.3	4
0	1531636	153163.5	14
0	1532720	153271.9	34
0	1533690	153368.9	53
0	1533876	153387.5	75
0	1536428	153642.7	79
0	1536662	153666.1	26
0	1537908	153790.7	11
0	1538332	153833.1	21
0	1541348	154134.7	63
0	1543068	154306.7	18
0	1543350	154334.9	91
0	1543740	154373.9	87
0	1544314	154431.3	61
0	1544706	154470.5	20
0	1545118	154511.7	6
0	1549024	154902.3	13
0	1550002	155000.1	42
0	1551478	155147.7	50
0	1552170	155216.9	27
0	1553222	155322.1	151
0	1553632	155363.1	30
0	1556586	155658.5	20
0	1556778	155677.7	2
0	1557802	155780.1	78
0	1558024	155802.3	161
0	1558348	155834.7	165
0	1558676	155867.5	123
0	1558980	155897.9	36
0	1560850	156084.9	5
0	1562764	156276.3	2
0	1563354	156335.3	3
0	1563862	156386.1	2
0	1569418	156941.7	104
0	1570520	157051.9	31
0	1572518	157251.7	6
0	1572570	157256.9	1
0	1576030	157602.9	68
0	1576978	157697.7	7
0	1578204	157820.3	223
0	1582162	158216.1	201
0	1583836	158383.5	147
0	1585526	158552.5	27
0	1586746	158674.5	75
0	1588660	158865.9	23
0	1589278	158927.7	129
0	1590320	159031.9	13
0	1591392	159139.1	108
0	1593140	159313.9	99
0	1596014	159601.3	94
0	1596408	159640.7	11
0	1597384	159738.3	22
0	1600876	160087.5	9
0	1604962	160496.1	25
0	1605516	160551.5	23
0	1605800	160579.9	7
0	1607640	160763.9	73
0	1608322	160832.1	4
0	1608586	160858.5	109
0	1610990	161098.9	77
0	1612112	161211.1	53
0	1617962	161796.1	57
0	1618640	161863.9	32
0	1618936	161893.5	10
0	1621606	162160.5	66
0	1623880	162387.9	96
0	1624586	162458.5	178
0	1624994	162499.3	125
0	1625528	162552.7	2
0	1626252	162625.1	45
0	1628436	162843.5	3
0	1630102	163010.1	156
0	1630548	163054.7	3
0	1631158	163115.7	1
0	1631930	163192.9	167
0	1632666	163266.5	7
0	1633164	163316.3	236
0	1633198	163319.7	5
0	1634298	163429.7	116
0	1634918	163491.7	13
0	1635612	163561.1	67
0	1637108	163710.7	39
0	1638420	163841.9	6
0	1641596	164159.5	112
0	1643578	164357.7	62
0	1644208	164420.7	9
0	1649730	164972.9	3
0	1650880	165087.9	3
0	1652750	165274.9	143
0	1655316	165531.5	251
0	1656444	165644.3	9
0	1656556	165655.5	3
0	1657150	165714.9	6
0	1658876	165887.5	18
0	1659936	165993.5	27
0	1660150	166014.9	137
0	1660810	166080.9	25
0	1661278	166127.7	3
0	1662228	166222.7	18
0	1662302	166230.1	71
0	1666598	166659.7	299
0	1666840	166683.9	91
0	1669096	166909.5	7
0	1669648	166964.7	198
0	1670246	167024.5	9
0	1671744	167174.3	44
0	1672378	167237.7	3
0	1672674	167267.3	41
0	1673022	167302.1	54
0	1674672	167467.1	24
0	1675008	167500.7	15
0	1676914	167691.3	24
0	1677824	167782.3	24
0	1679434	167943.3	8
0	1680794	168079.3	86
0	1683076	168307.5	95
0	1683976	168397.5	14
0	1684598	168459.7	13
0	1685154	168515.3	61
0	1687980	168797.9	78
0	1688142	168814.1	11
0	1689302	168930.1	71
0	1689876	168987.5	17
0	1689972	168997.1	29
0	1691376	169137.5	7
0	1695564	169556.3	2
0	1699620	169961.9	22
0	1702472	170247.1	23
0	1702564	170256.3	4
0	1706294	170629.3	122
0	1709042	170904.1	12
0	1712064	171206.3	6
0	1712388	171238.7	175
0	1713414	171341.3	21
0	1713588	171358.7	7
0	1713788	171378.7	76
0	1714372	171437.1	59
0	1716634	171663.3	103
0	1718374	171837.3	21
0	1720784	172078.3	34
0	1721846	172184.5	3
0	1723048	172304.7	52
0	1725968	172596.7	145
0	1726014	172601.3	5
0	1730328	173032.7	2
0	1731184	173118.3	55
0	1732694	173269.3	194
0	1734052	173405.1	6
0	1734272	173427.1	33
0	1735312	173531.1	2
0	1735486	173548.5	97
0	1735712	173571.1	13
0	1737372	173737.1	17
0	1742800	174279.9	65
0	1744976	174497.5	78
0	1747132	174713.1	9
0	1747498	174749.7	6
0	1747548	174754.7	38
0	1747864	174786.3	23
0	1748834	174883.3	6
0	1753106	175310.5	287
0	1754944	175494.3	12
0	1756486	175648.5	7
0	1757608	175760.7	22
0	1758534	175853.3	75
0	1761166	176116.5	107
0	1761478	176147.7	33
0	1766934	176693.3	140
0	1767066	176706.5	7
0	1767200	176719.9	39
0	1767618	176761.7	71
0	1767992	176799.1	9