version 3
run General-111-20230611-05:41:40-416617
attr configname General
attr datetime 20230611-05:41:40
attr datetimef 20230611-054140
attr experiment General
attr inifile omnetpp.ini
attr iterationvars $N=85
attr iterationvarsd N=85
attr iterationvarsf N=85-
attr measurement $N=85
attr network LN
attr processid 416617
attr repetition 3
attr replication #3
attr resultdir results
attr runnumber 111
attr seedset 111
itervar N 85
config network LN
config sim-time-limit 250000s
config **.tic[*].hopCount.result-recording-modes +vector
config *.numCentralNodes 85
config repeat 4

vector 0 LN.lnd[13] hopCount:vector ETV
attr interpolationmode none
attr recordingmode vector
attr source arrival
attr title "hop count"
vector 1 LN.lnd[3] hopCount:vector ETV
attr interpolationmode none
attr recordingmode vector
attr source arrival
attr title "hop count"
vector 2 LN.lnd[14] hopCount:vector ETV
attr interpolationmode none
attr recordingmode vector
attr source arrival
attr title "hop count"
vector 3 LN.lnd[4] hopCount:vector ETV
attr interpolationmode none
attr recordingmode vector
attr source arrival
attr title "hop count"
vector 4 LN.lnd[16] hopCount:vector ETV
attr interpolationmode none
attr recordingmode vector
attr source arrival
attr title "hop count"
vector 5 LN.lnd[18] hopCount:vector ETV
attr interpolationmode none
attr recordingmode vector
attr source arrival
attr title "hop count"
vector 6 LN.lnd[11] hopCount:vector ETV
attr interpolationmode none
attr recordingmode vector
attr source arrival
attr title "hop count"
vector 7 LN.lnd[6] hopCount:vector ETV
attr interpolationmode none
attr recordingmode vector
attr source arrival
attr title "hop count"
vector 8 LN.lnd[0] hopCount:vector ETV
attr interpolationmode none
attr recordingmode vector
attr source arrival
attr title "hop count"
vector 9 LN.lnd[19] hopCount:vector ETV
attr interpolationmode none
attr recordingmode vector
attr source arrival
attr title "hop count"
vector 10 LN.lnd[2] hopCount:vector ETV
attr interpolationmode none
attr recordingmode vector
attr source arrival
attr title "hop count"
vector 11 LN.lnd[10] hopCount:vector ETV
attr interpolationmode none
attr recordingmode vector
attr source arrival
attr title "hop count"
vector 12 LN.lnd[9] hopCount:vector ETV
attr interpolationmode none
attr recordingmode vector
attr source arrival
attr title "hop count"
vector 13 LN.lnd[5] hopCount:vector ETV
attr interpolationmode none
attr recordingmode vector
attr source arrival
attr title "hop count"
vector 14 LN.lnd[15] hopCount:vector ETV
attr interpolationmode none
attr recordingmode vector
attr source arrival
attr title "hop count"
vector 15 LN.lnd[17] hopCount:vector ETV
attr interpolationmode none
attr recordingmode vector
attr source arrival
attr title "hop count"
vector 16 LN.lnd[1] hopCount:vector ETV
attr interpolationmode none
attr recordingmode vector
attr source arrival
attr title "hop count"
vector 17 LN.lnd[8] hopCount:vector ETV
attr interpolationmode none
attr recordingmode vector
attr source arrival
attr title "hop count"
vector 18 LN.lnd[7] hopCount:vector ETV
attr interpolationmode none
attr recordingmode vector
attr source arrival
attr title "hop count"
vector 19 LN.lnd[12] hopCount:vector ETV
attr interpolationmode none
attr recordingmode vector
attr source arrival
attr title "hop count"
0	112	11.1	111
0	460	45.9	14
0	1044	104.3	160
0	1124	112.3	42
0	2514	251.3	135
0	6272	627.1	24
0	6726	672.5	39
0	7462	746.1	58
0	8656	865.5	168
0	8950	894.9	12
0	12182	1218.1	92
0	12614	1261.3	9
0	13084	1308.3	388
0	13234	1323.3	117
0	14434	1443.3	95
0	15506	1550.5	44
0	16170	1616.9	32
0	16378	1637.7	26
0	16900	1689.9	44
0	18272	1827.1	235
0	19890	1988.9	54
0	20820	2081.9	108
0	21514	2151.3	145
0	24360	2435.9	121
0	25178	2517.7	4
0	26254	2625.3	170
0	29430	2942.9	54
0	33522	3352.1	113
0	33912	3391.1	86
0	36018	3601.7	3
0	37710	3770.9	125
0	37950	3794.9	172
0	38206	3820.5	5
0	38696	3869.5	28
0	39184	3918.3	259
0	40054	4005.3	5
0	42708	4270.7	278
0	43064	4306.3	26
0	44582	4458.1	1
0	44666	4466.5	1
0	45602	4560.1	8
0	46644	4664.3	162
0	48010	4800.9	310
0	49112	4911.1	37
0	51072	5107.1	3
0	53688	5368.7	16
0	54328	5432.7	48
0	56082	5608.1	50
0	57646	5764.5	8
0	58716	5871.5	3
0	59552	5955.1	15
0	59586	5958.5	5
0	62678	6267.7	54
0	64304	6430.3	28
0	64498	6449.7	183
0	65662	6566.1	39
0	65782	6578.1	8
0	69100	6909.9	15
0	69436	6943.5	15
0	70706	7070.5	51
0	71596	7159.5	130
0	73564	7356.3	36
0	74652	7465.1	50
0	75086	7508.5	47
0	75692	7569.1	29
0	77194	7719.3	60
0	79412	7941.1	11
0	84628	8462.7	7
0	85086	8508.5	229
0	86354	8635.3	346
0	88152	8815.1	41
0	92144	9214.3	266
0	94378	9437.7	34
0	94880	9487.9	92
0	98834	9883.3	5
0	100510	10050.9	18
0	100578	10057.7	10
0	101134	10113.3	92
0	101260	10125.9	71
0	103140	10313.9	69
0	103778	10377.7	103
0	105012	10501.1	246
0	105124	10512.3	78
0	106934	10693.3	227
0	115420	11541.9	7
0	115448	11544.7	15
0	116618	11661.7	480
0	118444	11844.3	313
0	118634	11863.3	117
0	119410	11940.9	206
0	120936	12093.5	109
0	121300	12129.9	16
0	122332	12233.1	87
0	123744	12374.3	14
0	124590	12458.9	240
0	125938	12593.7	217
0	126454	12645.3	5
0	129062	12906.1	228
0	129200	12919.9	12
0	129368	12936.7	24
0	131836	13183.5	53
0	132048	13204.7	24
0	132368	13236.7	177
0	133138	13313.7	139
0	136698	13669.7	76
0	138182	13818.1	39
0	138894	13889.3	185
0	141574	14157.3	14
0	142032	14203.1	100
0	142260	14225.9	122
0	142386	14238.5	1
0	144016	14401.5	32
0	144216	14421.5	36
0	144274	14427.3	37
0	145018	14501.7	129
0	146852	14685.1	232
0	147060	14705.9	203
0	147560	14755.9	77
0	148148	14814.7	71
0	148664	14866.3	113
0	149140	14913.9	227
0	149342	14934.1	123
0	149556	14955.5	151
0	149754	14975.3	12
0	153268	15326.7	56
0	154488	15448.7	51
0	154676	15467.5	86
0	156846	15684.5	55
0	158242	15824.1	50
0	163990	16398.9	204
0	164474	16447.3	34
0	166004	16600.3	208
0	168406	16840.5	6
0	168802	16880.1	209
0	170038	17003.7	317
0	170648	17064.7	49
0	171920	17191.9	7
0	172510	17250.9	166
0	172732	17273.1	39
0	173158	17315.7	99
0	173702	17370.1	207
0	174378	17437.7	13
0	175498	17549.7	340
0	176158	17615.7	165
0	178138	17813.7	14
0	179806	17980.5	52
0	182272	18227.1	28
0	183434	18343.3	35
0	184060	18405.9	35
0	184904	18490.3	83
0	185936	18593.5	12
0	191946	19194.5	278
0	193766	19376.5	97
0	195892	19589.1	21
0	197310	19730.9	5
0	199016	19901.5	48
0	200272	20027.1	60
0	201204	20120.3	115
0	201306	20130.5	67
0	202096	20209.5	77
0	203390	20338.9	117
0	212008	21200.7	393
0	212082	21208.1	25
0	212320	21231.9	20
0	214642	21464.1	156
0	214730	21472.9	44
0	215058	21505.7	195
0	215620	21561.9	118
0	215764	21576.3	19
0	218142	21814.1	170
0	220388	22038.7	259
0	220794	22079.3	52
0	224028	22402.7	34
0	224864	22486.3	15
0	225922	22592.1	49
0	227572	22757.1	7
0	228032	22803.1	32
0	228362	22836.1	118
0	229622	22962.1	211
0	230622	23062.1	65
0	231456	23145.5	198
0	231572	23157.1	9
0	232598	23259.7	64
0	234542	23454.1	140
0	236278	23627.7	208
0	237014	23701.3	40
0	239044	23904.3	3
0	239776	23977.5	157
0	242212	24221.1	50
0	243350	24334.9	12
0	244408	24440.7	36
0	245176	24517.5	181
0	245606	24560.5	99
0	245978	24597.7	44
0	247122	24712.1	7
0	247550	24754.9	2
0	248026	24802.5	32
0	248400	24839.9	47
0	249202	24920.1	13
0	250556	25055.5	94
0	250972	25097.1	143
0	251172	25117.1	37
0	251186	25118.5	5
0	251642	25164.1	119
0	252420	25241.9	38
0	252704	25270.3	8
0	253634	25363.3	227
0	256714	25671.3	1
0	257834	25783.3	25
0	258012	25801.1	21
0	258528	25852.7	1
0	260342	26034.1	34
0	261284	26128.3	493
0	261680	26167.9	12
0	262788	26278.7	10
0	263396	26339.5	390
0	264214	26421.3	37
0	264498	26449.7	156
0	266984	26698.3	94
0	267178	26717.7	37
0	268010	26800.9	24
0	268346	26834.5	162
0	269296	26929.5	3
0	269550	26954.9	48
0	270096	27009.5	55
0	270198	27019.7	46
0	270746	27074.5	30
0	273808	27380.7	312
0	274344	27434.3	157
0	276194	27619.3	468
0	276904	27690.3	36
0	281386	28138.5	118
0	282306	28230.5	194
0	286648	28664.7	50
0	288080	28807.9	32
0	289208	28920.7	55
0	290408	29040.7	95
0	291260	29125.9	50
0	291940	29193.9	48
0	292862	29286.1	88
0	293698	29369.7	11
0	298386	29838.5	41
0	300310	30030.9	73
0	301908	30190.7	125
0	302088	30208.7	161
0	303530	30352.9	277
0	305828	30582.7	228
0	310020	31001.9	100
0	310462	31046.1	2
0	311452	31145.1	25
0	315978	31597.7	182
0	317114	31711.3	258
0	317536	31753.5	78
0	318154	31815.3	106
0	319202	31920.1	453
0	320386	32038.5	107
0	324096	32409.5	198
0	325584	32558.3	21
0	326820	32681.9	60
0	331602	33160.1	71
0	332548	33254.7	6
0	335126	33512.5	28
0	337010	33700.9	303
0	337140	33713.9	47
0	343246	34324.5	96
0	343612	34361.1	238
0	347328	34732.7	314
0	350378	35037.7	291
0	350586	35058.5	5
0	351694	35169.3	53
0	352750	35274.9	329
0	354062	35406.1	43
0	357034	35703.3	91
0	357566	35756.5	484
0	357754	35775.3	32
0	358306	35830.5	266
0	359024	35902.3	52
0	360020	36001.9	49
0	366326	36632.5	42
0	368044	36804.3	238
0	368386	36838.5	27
0	370296	37029.5	214
0	371312	37131.1	170
0	371404	37140.3	1
0	372572	37257.1	62
0	375956	37595.5	84
0	376738	37673.7	7
0	377542	37754.1	7
0	377794	37779.3	76
0	378406	37840.5	71
0	379746	37974.5	135
0	380180	38017.9	79
0	382194	38219.3	198
0	382336	38233.5	64
0	382954	38295.3	260
0	384478	38447.7	26
0	384704	38470.3	89
0	384786	38478.5	67
0	385108	38510.7	102
0	386270	38626.9	50
0	386746	38674.5	8
0	387494	38749.3	22
0	388408	38840.7	200
0	390832	39083.1	26
0	391034	39103.3	178
0	392396	39239.5	84
0	395160	39515.9	53
0	401676	40167.5	33
0	402878	40287.7	274
0	402894	40289.3	9
0	402928	40292.7	28
0	405942	40594.1	59
0	407804	40780.3	233
0	409788	40978.7	111
0	415584	41558.3	212
0	416408	41640.7	98
0	416642	41664.1	122
0	417648	41764.7	380
0	418158	41815.7	28
0	418204	41820.3	12
0	422922	42292.1	70
0	423050	42304.9	113
0	423148	42314.7	66
0	423948	42394.7	33
0	426134	42613.3	223
0	426774	42677.3	23
0	427262	42726.1	9
0	427590	42758.9	53
0	427844	42784.3	52
0	429126	42912.5	71
0	431406	43140.5	23
0	431646	43164.5	94
0	432382	43238.1	169
0	432898	43289.7	238
0	432986	43298.5	73
0	433634	43363.3	44
0	434066	43406.5	97
0	435916	43591.5	22
0	438184	43818.3	337
0	440290	44028.9	108
0	440550	44054.9	109
0	440712	44071.1	43
0	440864	44086.3	3
0	442422	44242.1	72
0	443566	44356.5	4
0	445480	44547.9	101
0	446324	44632.3	1
0	446326	44632.5	1
0	446460	44645.9	24
0	451412	45141.1	116
0	451562	45156.1	12
0	452094	45209.3	62
0	452456	45245.5	167
0	453212	45321.1	452
0	453396	45339.5	30
0	455900	45589.9	217
0	456414	45641.3	72
0	456910	45690.9	73
0	458484	45848.3	94
0	458742	45874.1	6
0	459388	45938.7	109
0	460458	46045.7	81
0	461756	46175.5	202
0	462394	46239.3	24
0	462738	46273.7	25
0	463738	46373.7	156
0	464226	46422.5	1
0	465442	46544.1	153
0	467230	46722.9	4
0	468210	46820.9	1
0	469984	46998.3	1
0	472838	47283.7	97
0	473570	47356.9	13
0	475408	47540.7	97
0	477374	47737.3	1
0	478044	47804.3	40
0	478244	47824.3	80
0	479610	47960.9	144
0	481562	48156.1	6
0	481982	48198.1	371
0	484458	48445.7	39
0	488176	48817.5	93
0	490164	49016.3	47
0	490636	49063.5	136
0	492382	49238.1	66
0	493008	49300.7	3
0	493588	49358.7	1
0	495104	49510.3	106
0	496142	49614.1	1
0	496340	49633.9	68
0	500258	50025.7	574
0	501616	50161.5	59
0	501774	50177.3	8
0	502398	50239.7	89
0	503832	50383.1	21
0	504430	50442.9	79
0	504944	50494.3	31
0	505176	50517.5	23
0	505452	50545.1	258
0	506542	50654.1	202
0	511870	51186.9	28
0	513686	51368.5	31
0	513952	51395.1	23
0	516260	51625.9	56
0	517296	51729.5	36
0	518262	51826.1	148
0	519988	51998.7	128
0	520100	52009.9	17
0	520290	52028.9	109
0	522636	52263.5	50
0	522984	52298.3	104
0	523414	52341.3	8
0	523602	52360.1	112
0	525850	52584.9	257
0	526230	52622.9	61
0	526998	52699.7	104
0	527202	52720.1	173
0	527498	52749.7	51
0	527850	52784.9	16
0	527950	52794.9	98
0	531608	53160.7	23
0	532876	53287.5	64
0	535304	53530.3	48
0	535854	53585.3	5
0	536054	53605.3	117
0	538610	53860.9	175
0	539586	53958.5	34
0	539800	53979.9	13
0	540226	54022.5	169
0	541020	54101.9	55
0	541642	54164.1	53
0	542632	54263.1	138
0	543102	54310.1	136
0	543450	54344.9	119
0	544302	54430.1	85
0	544382	54438.1	6
0	545772	54577.1	289
0	547390	54738.9	12
0	551194	55119.3	91
0	551590	55158.9	32
0	552284	55228.3	35
0	554128	55412.7	216
0	555410	55540.9	72
0	556532	55653.1	146
0	557698	55769.7	36
0	558552	55855.1	235
0	559858	55985.7	71
0	560612	56061.1	85
0	561088	56108.7	80
0	564772	56477.1	39
0	567012	56701.1	74
0	567144	56714.3	125
0	567236	56723.5	3
0	567390	56738.9	91
0	568096	56809.5	206
0	568272	56827.1	110
0	568320	56831.9	39
0	569142	56914.1	125
0	570022	57002.1	51
0	570506	57050.5	33
0	572076	57207.5	36
0	572480	57247.9	118
0	573420	57341.9	58
0	576036	57603.5	196
0	578262	57826.1	53
0	581436	58143.5	3
0	582338	58233.7	65
0	585040	58503.9	534
0	585570	58556.9	239
0	595480	59547.9	90
0	596084	59608.3	13
0	598736	59873.5	11
0	601864	60186.3	72
0	602914	60291.3	259
0	604360	60435.9	286
0	607810	60780.9	1
0	608358	60835.7	70
0	611512	61151.1	62
0	611880	61187.9	243
0	612580	61257.9	133
0	613320	61331.9	128
0	614548	61454.7	11
0	616306	61630.5	31
0	617128	61712.7	240
0	620020	62001.9	50
0	623882	62388.1	189
0	624418	62441.7	419
0	625616	62561.5	186
0	627408	62740.7	135
0	627822	62782.1	176
0	628932	62893.1	15
0	630550	63054.9	177
0	631012	63101.1	246
0	631196	63119.5	92
0	631754	63175.3	383
0	633124	63312.3	196
0	634722	63472.1	253
0	638748	63874.7	184
0	640134	64013.3	46
0	640688	64068.7	102
0	641582	64158.1	56
0	642140	64213.9	85
0	645776	64577.5	210
0	648356	64835.5	283
0	652572	65257.1	156
0	654982	65498.1	107
0	656446	65644.5	371
0	657354	65735.3	99
0	658002	65800.1	105
0	658256	65825.5	163
0	658956	65895.5	137
0	660672	66067.1	126
0	661922	66192.1	125
0	662586	66258.5	13
0	664798	66479.7	7
0	668776	66877.5	125
0	668856	66885.5	67
0	670178	67017.7	147
0	670856	67085.5	32
0	670902	67090.1	25
0	671222	67122.1	61
0	674174	67417.3	116
0	674814	67481.3	293
0	674840	67483.9	5
0	675826	67582.5	74
0	677318	67731.7	42
0	677912	67791.1	154
0	679266	67926.5	130
0	679428	67942.7	157
0	681846	68184.5	62
0	682276	68227.5	6
0	683542	68354.1	43
0	686142	68614.1	280
0	686604	68660.3	60
0	687396	68739.5	1
0	687628	68762.7	65
0	687750	68774.9	93
0	688870	68886.9	157
0	690584	69058.3	65
0	693152	69315.1	9
0	693796	69379.5	236
0	693970	69396.9	19
0	694012	69401.1	20
0	696138	69613.7	177
0	697372	69737.1	331
0	698206	69820.5	146
0	700188	70018.7	576
0	700806	70080.5	150
0	701094	70109.3	113
0	703400	70339.9	7
0	704838	70483.7	190
0	704930	70492.9	31
0	705678	70567.7	681
0	706922	70692.1	9
0	709060	70905.9	138
0	709148	70914.7	39
0	710472	71047.1	45
0	711364	71136.3	58
0	712314	71231.3	212
0	713948	71394.7	5
0	716322	71632.1	228
0	716994	71699.3	114
0	718972	71897.1	273
0	720936	72093.5	6
0	721262	72126.1	4
0	721788	72178.7	87
0	722400	72239.9	10
0	724052	72405.1	125
0	725752	72575.1	17
0	727232	72723.1	76
0	728532	72853.1	27
0	728704	72870.3	77
0	729438	72943.7	124
0	730564	73056.3	59
0	731000	73099.9	58
0	731214	73121.3	28
0	732184	73218.3	97
0	732734	73273.3	5
0	733332	73333.1	417
0	735358	73535.7	12
0	735728	73572.7	107
0	737292	73729.1	29
0	738890	73888.9	27
0	741682	74168.1	257
0	742290	74228.9	80
0	744338	74433.7	37
0	744750	74474.9	172
0	748946	74894.5	233
0	749496	74949.5	330
0	752004	75200.3	155
0	753046	75304.5	138
0	753504	75350.3	209
0	757690	75768.9	246
0	759768	75976.7	55
0	760668	76066.7	29
0	760844	76084.3	139
0	761044	76104.3	96
0	762018	76201.7	88
0	763538	76353.7	170
0	765136	76513.5	146
0	765404	76540.3	1
0	768388	76838.7	197
0	769368	76936.7	63
0	769966	76996.5	156
0	772942	77294.1	152
0	777432	77743.1	110
0	777532	77753.1	15
0	778884	77888.3	1
0	779586	77958.5	155
0	781850	78184.9	35
0	786188	78618.7	386
0	786398	78639.7	203
0	786812	78681.1	183
0	787230	78722.9	52
0	787782	78778.1	280
0	789906	78990.5	351
0	790456	79045.5	196
0	790924	79092.3	36
0	791964	79196.3	4
0	792070	79206.9	78
0	792426	79242.5	60
0	797038	79703.7	20
0	797394	79739.3	14
0	800222	80022.1	14
0	801378	80137.7	202
0	802668	80266.7	220
0	804714	80471.3	169
0	808992	80899.1	97
0	809614	80961.3	29
0	809798	80979.7	33
0	811378	81137.7	1
0	813514	81351.3	11
0	813868	81386.7	13
0	815308	81530.7	136
0	816210	81620.9	145
0	820734	82073.3	23
0	823218	82321.7	7
0	824042	82404.1	477
0	824356	82435.5	92
0	826220	82621.9	47
0	826882	82688.1	14
0	828794	82879.3	35
0	829446	82944.5	185
0	830022	83002.1	29
0	832102	83210.1	3
0	832892	83289.1	28
0	834570	83456.9	153
0	841304	84130.3	7
0	842246	84224.5	40
0	844026	84402.5	6
0	852190	85218.9	123
0	852964	85296.3	13
0	855496	85549.5	250
0	856676	85667.5	81
0	859056	85905.5	138
0	859882	85988.1	170
0	860752	86075.1	6
0	862670	86266.9	294
0	864070	86406.9	41
0	864840	86483.9	36
0	865714	86571.3	90
0	867222	86722.1	1
0	867308	86730.7	56
0	867532	86753.1	107
0	871058	87105.7	171
0	872086	87208.5	90
0	875952	87595.1	262
0	877258	87725.7	22
0	879134	87913.3	333
0	880116	88011.5	241
0	882330	88232.9	115
0	882836	88283.5	29
0	884672	88467.1	244
0	886930	88692.9	32
0	888288	88828.7	111
0	889182	88918.1	40
0	890382	89038.1	114
0	891032	89103.1	34
0	891948	89194.7	40
0	893234	89323.3	168
0	893652	89365.1	25
0	898302	89830.1	17
0	898376	89837.5	35
0	900986	90098.5	16
0	902190	90218.9	44
0	903722	90372.1	206
0	904112	90411.1	98
0	907358	90735.7	2
0	907616	90761.5	39
0	911118	91111.7	1
0	915384	91538.3	111
0	915494	91549.3	9
0	917646	91764.5	101
0	919252	91925.1	28
0	919966	91996.5	111
0	920706	92070.5	29
0	923136	92313.5	22
0	925676	92567.5	180
0	927672	92767.1	6
0	928914	92891.3	76
0	929556	92955.5	27
0	930588	93058.7	11
0	930944	93094.3	4
0	931126	93112.5	127
0	936220	93621.9	59
0	937030	93702.9	85
0	937846	93784.5	69
0	938722	93872.1	91
0	942022	94202.1	123
0	943510	94350.9	81
0	943922	94392.1	65
0	944270	94426.9	2
0	944624	94462.3	81
0	945236	94523.5	177
0	945842	94584.1	77
0	951032	95103.1	8
0	952482	95248.1	66
0	953566	95356.5	254
0	954248	95424.7	159
0	955066	95506.5	21
0	955762	95576.1	126
0	956026	95602.5	1
0	956664	95666.3	4
0	958734	95873.3	211
0	958792	95879.1	48
0	959794	95979.3	154
0	960334	96033.3	142
0	963804	96380.3	3
0	965204	96520.3	21
0	967796	96779.5	48
0	970360	97035.9	162
0	971298	97129.7	47
0	971554	97155.3	20
0	971592	97159.1	8
0	972630	97262.9	23
0	973200	97319.9	393
0	975712	97571.1	190
0	979004	97900.3	27
0	979664	97966.3	78
0	979860	97985.9	137
0	981910	98190.9	20
0	983330	98332.9	178
0	983650	98364.9	95
0	986324	98632.3	29
0	986640	98663.9	6
0	987974	98797.3	27
0	989052	98905.1	24
0	989562	98956.1	51
0	991178	99117.7	255
0	992028	99202.7	26
0	992994	99299.3	107
0	993298	99329.7	172
0	994062	99406.1	79
0	994532	99453.1	46
0	996182	99618.1	11
0	998638	99863.7	29
0	1000100	100009.9	51
0	1000494	100049.3	69
0	1001252	100125.1	10
0	1002422	100242.1	23
0	1004580	100457.9	1
0	1004878	100487.7	223
0	1005686	100568.5	303
0	1006290	100628.9	21
0	1008052	100805.1	27
0	1009138	100913.7	168
0	1009322	100932.1	134
0	1011086	101108.5	14
0	1011432	101143.1	260
0	1011938	101193.7	152
0	1012730	101272.9	74
0	1013068	101306.7	3
0	1015784	101578.3	82
0	1016812	101681.1	42
0	1019068	101906.7	23
0	1021468	102146.7	54
0	1026734	102673.3	96
0	1027316	102731.5	363
0	1027884	102788.3	30
0	1028792	102879.1	113
0	1030722	103072.1	36
0	1030818	103081.7	83
0	1031282	103128.1	10
0	1031420	103141.9	58
0	1034048	103404.7	60
0	1034118	103411.7	53
0	1035216	103521.5	39
0	1035524	103552.3	54
0	1037934	103793.3	29
0	1038198	103819.7	24
0	1038494	103849.3	130
0	1040912	104091.1	84
0	1042500	104249.9	108
0	1046246	104624.5	79
0	1046834	104683.3	69
0	1049052	104905.1	160
0	1049656	104965.5	67
0	1049926	104992.5	87
0	1050290	105028.9	103
0	1050980	105097.9	39
0	1051274	105127.3	30
0	1051790	105178.9	93
0	1052500	105249.9	77
0	1053360	105335.9	77
0	1057156	105715.5	51
0	1057314	105731.3	36
0	1060148	106014.7	14
0	1060648	106064.7	355
0	1062744	106274.3	64
0	1063418	106341.7	25
0	1064966	106496.5	76
0	1066440	106643.9	112
0	1067694	106769.3	102
0	1068380	106837.9	24
0	1070718	107071.7	35
0	1072462	107246.1	36
0	1078338	107833.7	384
0	1078840	107883.9	165
0	1080780	108077.9	397
0	1081738	108173.7	66
0	1084694	108469.3	152
0	1086720	108671.9	58
0	1087864	108786.3	18
0	1088728	108872.7	95
0	1088904	108890.3	98
0	1091298	109129.7	194
0	1091912	109191.1	215
0	1092792	109279.1	33
0	1093372	109337.1	271
0	1099918	109991.7	49
0	1099992	109999.1	14
0	1100556	110055.5	32
0	1101226	110122.5	18
0	1102678	110267.7	6
0	1104438	110443.7	167
0	1108070	110806.9	323
0	1108450	110844.9	163
0	1108812	110881.1	64
0	1109794	110979.3	37
0	1110766	111076.5	183
0	1110880	111087.9	5
0	1111746	111174.5	215
0	1111932	111193.1	7
0	1112408	111240.7	304
0	1112576	111257.5	20
0	1113700	111369.9	138
0	1116898	111689.7	34
0	1117126	111712.5	6
0	1117530	111752.9	11
0	1119162	111916.1	171
0	1123146	112314.5	136
0	1125462	112546.1	83
0	1126422	112642.1	127
0	1127188	112718.7	61
0	1132474	113247.3	1
0	1132534	113253.3	28
0	1134162	113416.1	29
0	1136020	113601.9	223
0	1141000	114099.9	145
0	1142098	114209.7	171
0	1142622	114262.1	258
0	1144490	114448.9	19
0	1145670	114566.9	33
0	1146170	114616.9	53
0	1147366	114736.5	110
0	1147646	114764.5	77
0	1152108	115210.7	85
0	1152766	115276.5	78
0	1157216	115721.5	169
0	1159614	115961.3	80
0	1160000	115999.9	17
0	1162236	116223.5	132
0	1164514	116451.3	1
0	1168472	116847.1	82
0	1174774	117477.3	4
0	1178922	117892.1	41
0	1181098	118109.7	47
0	1181752	118175.1	116
0	1182642	118264.1	33
0	1183160	118315.9	127
0	1184602	118460.1	138
0	1185010	118500.9	309
0	1187088	118708.7	26
0	1187944	118794.3	33
0	1188466	118846.5	41
0	1189666	118966.5	26
0	1189828	118982.7	10
0	1191788	119178.7	21
0	1193990	119398.9	402
0	1194378	119437.7	80
0	1194690	119468.9	12
0	1194732	119473.1	12
0	1194734	119473.3	1
0	1195664	119566.3	7
0	1198404	119840.3	467
0	1198542	119854.1	43
0	1199598	119959.7	150
0	1200288	120028.7	313
0	1200610	120060.9	238
0	1202232	120223.1	60
0	1203772	120377.1	18
0	1204254	120425.3	14
0	1204474	120447.3	80
0	1205472	120547.1	260
0	1207762	120776.1	8
0	1209648	120964.7	43
0	1210458	121045.7	282
0	1211408	121140.7	152
0	1212792	121279.1	25
0	1212908	121290.7	59
0	1217154	121715.3	210
0	1219014	121901.3	3
0	1219782	121978.1	1
0	1221614	122161.3	46
0	1223268	122326.7	18
0	1223332	122333.1	41
0	1223562	122356.1	225
0	1224902	122490.1	3
0	1225186	122518.5	135
0	1225264	122526.3	47
0	1226244	122624.3	8
0	1226748	122674.7	135
0	1228998	122899.7	51
0	1229030	122902.9	14
0	1230838	123083.7	146
0	1231392	123139.1	22
0	1235602	123560.1	170
0	1236836	123683.5	28
0	1236972	123697.1	99
0	1237260	123725.9	29
0	1238022	123802.1	156
0	1238862	123886.1	22
0	1239374	123937.3	44
0	1240510	124050.9	105
0	1240870	124086.9	135
0	1244464	124446.3	146
0	1246526	124652.5	164
0	1246540	124653.9	7
0	1246766	124676.5	36
0	1248280	124827.9	103
0	1252904	125290.3	287
0	1254048	125404.7	69
0	1254766	125476.5	55
0	1254902	125490.1	47
0	1255014	125501.3	90
0	1259096	125909.5	125
0	1259758	125975.7	104
0	1263728	126372.7	13
0	1264096	126409.5	19
0	1266648	126664.7	117
0	1267500	126749.9	146
0	1267862	126786.1	9
0	1270838	127083.7	31
0	1272212	127221.1	4
0	1274910	127490.9	1
0	1276406	127640.5	138
0	1276864	127686.3	342
0	1280678	128067.7	181
0	1283530	128352.9	97
0	1284450	128444.9	111
0	1284812	128481.1	13
0	1285244	128524.3	120
0	1286106	128610.5	91
0	1287102	128710.1	22
0	1287126	128712.5	19
0	1287246	128724.5	15
0	1288478	128847.7	142
0	1288898	128889.7	54
0	1293590	129358.9	19
0	1293790	129378.9	140
0	1298172	129817.1	257
0	1298710	129870.9	199
0	1299218	129921.7	109
0	1299688	129968.7	147
0	1299892	129989.1	40
0	1300050	130004.9	51
0	1300540	130053.9	33
0	1300662	130066.1	96
0	1301614	130161.3	1
0	1303910	130390.9	406
0	1305850	130584.9	2
0	1306624	130662.3	19
0	1306974	130697.3	71
0	1307580	130757.9	31
0	1308264	130826.3	29
0	1309308	130930.7	210
0	1310238	131023.7	50
0	1315692	131569.1	19
0	1317012	131701.1	63
0	1318280	131827.9	23
0	1319202	131920.1	191
0	1319610	131960.9	105
0	1322030	132202.9	49
0	1322210	132220.9	170
0	1323964	132396.3	101
0	1325450	132544.9	147
0	1326198	132619.7	340
0	1326918	132691.7	93
0	1327142	132714.1	80
0	1329196	132919.5	106
0	1329562	132956.1	76
0	1329700	132969.9	1
0	1333254	133325.3	305
0	1333922	133392.1	61
0	1335492	133549.1	176
0	1336556	133655.5	26
0	1337840	133783.9	37
0	1339982	133998.1	8
0	1341632	134163.1	89
0	1341972	134197.1	84
0	1342184	134218.3	201
0	1343988	134398.7	75
0	1345264	134526.3	79
0	1345922	134592.1	68
0	1346518	134651.7	29
0	1348836	134883.5	268
0	1349192	134919.1	149
0	1349856	134985.5	22
0	1350148	135014.7	56
0	1351858	135185.7	121
0	1353240	135323.9	27
0	1353882	135388.1	247
0	1357212	135721.1	26
0	1361814	136181.3	171
0	1362026	136202.5	49
0	1365664	136566.3	28
0	1366934	136693.3	7
0	1367630	136762.9	17
0	1368894	136889.3	254
0	1371520	137151.9	771
0	1371934	137193.3	54
0	1373912	137391.1	5
0	1374884	137488.3	20
0	1377244	137724.3	74
0	1378086	137808.5	245
0	1378804	137880.3	135
0	1379088	137908.7	282
0	1383386	138338.5	32
0	1385756	138575.5	6
0	1386198	138619.7	129
0	1387796	138779.5	24
0	1388396	138839.5	128
0	1396774	139677.3	1
0	1397326	139732.5	9
0	1397762	139776.1	425
0	1398726	139872.5	24
0	1398818	139881.7	41
0	1400804	140080.3	94
0	1401450	140144.9	12
0	1401982	140198.1	250
0	1404442	140444.1	152
0	1405800	140579.9	101
0	1407276	140727.5	13
0	1408202	140820.1	69
0	1408508	140850.7	6
0	1410242	141024.1	35
0	1411220	141121.9	121
0	1411560	141155.9	27
0	1412356	141235.5	9
0	1414074	141407.3	13
0	1414994	141499.3	37
0	1415222	141522.1	181
0	1416138	141613.7	119
0	1416350	141634.9	118
0	1416886	141688.5	36
0	1417250	141724.9	99
0	1417942	141794.1	6
0	1419522	141952.1	234
0	1420492	142049.1	6
0	1422114	142211.3	130
0	1422802	142280.1	283
0	1423306	142330.5	3
0	1423792	142379.1	36
0	1424682	142468.1	54
0	1425352	142535.1	210
0	1426664	142666.3	152
0	1426974	142697.3	11
0	1427544	142754.3	16
0	1427644	142764.3	9
0	1428026	142802.5	50
0	1430478	143047.7	88
0	1431000	143099.9	165
0	1431802	143180.1	225
0	1432918	143291.7	9
0	1433190	143318.9	138
0	1433796	143379.5	116
0	1434764	143476.3	80
0	1435416	143541.5	65
0	1436806	143680.5	7
0	1439754	143975.3	78
0	1441448	144144.7	76
0	1441744	144174.3	286
0	1442032	144203.1	88
0	1443984	144398.3	48
0	1444904	144490.3	18
0	1446938	144693.7	38
0	1447906	144790.5	164
0	1448170	144816.9	64
0	1448450	144844.9	30
0	1448520	144851.9	50
0	1449762	144976.1	15
0	1450786	145078.5	271
0	1453396	145339.5	13
0	1453812	145381.1	110
0	1453972	145397.1	55
0	1454338	145433.7	12
0	1454590	145458.9	11
0	1457662	145766.1	114
0	1458118	145811.7	25
0	1458316	145831.5	152
0	1458838	145883.7	36
0	1460738	146073.7	11
0	1462220	146221.9	275
0	1462454	146245.3	211
0	1463876	146387.5	120
0	1464510	146450.9	3
0	1468416	146841.5	81
0	1468574	146857.3	17
0	1469088	146908.7	43
0	1469858	146985.7	87
0	1470972	147097.1	2
0	1471358	147135.7	72
0	1472286	147228.5	23
0	1477294	147729.3	5
0	1478170	147816.9	31
0	1478494	147849.3	1
0	1478710	147870.9	51
0	1480852	148085.1	150
0	1483460	148345.9	82
0	1483886	148388.5	169
0	1484590	148458.9	17
0	1486632	148663.1	103
0	1489206	148920.5	48
0	1489970	148996.9	273
0	1490086	149008.5	36
0	1491172	149117.1	92
0	1491302	149130.1	107
0	1493014	149301.3	25
0	1495732	149573.1	249
0	1500772	150077.1	358
0	1504412	150441.1	117
0	1505818	150581.7	42
0	1507398	150739.7	167
0	1508710	150870.9	11
0	1509216	150921.5	278
0	1511588	151158.7	50
0	1513206	151320.5	36
0	1514070	151406.9	498
0	1514192	151419.1	13
0	1515224	151522.3	22
0	1515340	151533.9	93
0	1518688	151868.7	389
0	1519312	151931.1	1
0	1520640	152063.9	356
0	1520808	152080.7	54
0	1520952	152095.1	4
0	1521248	152124.7	194
0	1525842	152584.1	135
0	1527564	152756.3	6
0	1528856	152885.5	6
0	1528858	152885.7	1
0	1529238	152923.7	12
0	1530858	153085.7	83
0	1532574	153257.3	260
0	1533076	153307.5	59
0	1534364	153436.3	184
0	1540326	154032.5	89
0	1541122	154112.1	83
0	1541934	154193.3	221
0	1542828	154282.7	90
0	1543244	154324.3	21
0	1544724	154472.3	157
0	1545172	154517.1	86
0	1546850	154684.9	80
0	1547358	154735.7	59
0	1549660	154965.9	43
0	1549814	154981.3	88
0	1550218	155021.7	110
0	1550816	155081.5	27
0	1552576	155257.5	136
0	1553058	155305.7	112
0	1553404	155340.3	185
0	1553648	155364.7	6
0	1555254	155525.3	84
0	1555926	155592.5	36
0	1556364	155636.3	250
0	1557594	155759.3	27
0	1557838	155783.7	123
0	1559150	155914.9	113
0	1561958	156195.7	86
0	1562682	156268.1	12
0	1564010	156400.9	8
0	1564112	156411.1	79
0	1564582	156458.1	107
0	1564752	156475.1	14
0	1565516	156551.5	162
0	1567098	156709.7	144
0	1568290	156828.9	398
0	1568690	156868.9	169
0	1568812	156881.1	39
0	1571138	157113.7	5
0	1571314	157131.3	14
0	1571608	157160.7	113
0	1573426	157342.5	65
0	1574602	157460.1	237
0	1575148	157514.7	38
0	1576046	157604.5	1
0	1577072	157707.1	159
0	1578290	157828.9	641
0	1579230	157922.9	18
0	1581576	158157.5	245
0	1583544	158354.3	45
0	1584714	158471.3	104
0	1585042	158504.1	11
0	1588696	158869.5	59
0	1590284	159028.3	67
0	1590318	159031.7	23
0	1591554	159155.3	147
0	1594598	159459.7	330
0	1594864	159486.3	84
0	1595692	159569.1	123
0	1596412	159641.1	125
0	1596838	159683.7	303
0	1598390	159838.9	31
0	1599842	159984.1	79
0	1600866	160086.5	102
0	1601644	160164.3	25
0	1602004	160200.3	26
0	1603886	160388.5	82
0	1603908	160390.7	21
0	1604380	160437.9	102
0	1604490	160448.9	58
0	1608342	160834.1	61
0	1609476	160947.5	52
0	1610080	161007.9	287
0	1610654	161065.3	191
0	1613284	161328.3	212
0	1613704	161370.3	245
0	1615408	161540.7	1
0	1617292	161729.1	17
0	1618506	161850.5	153
0	1619264	161926.3	250
0	1621890	162188.9	251
0	1622182	162218.1	36
0	1623184	162318.3	20
0	1623462	162346.1	161
0	1624056	162405.5	95
0	1624884	162488.3	56
0	1626088	162608.7	17
0	1628030	162802.9	38
0	1628996	162899.5	76
0	1630570	163056.9	7
0	1631750	163174.9	220
0	1632186	163218.5	168
0	1632542	163254.1	85
0	1633058	163305.7	33
0	1634622	163462.1	105
0	1635064	163506.3	385
0	1636382	163638.1	66
0	1636800	163679.9	147
0	1637516	163751.5	62
0	1641334	164133.3	25
0	1642226	164222.5	179
0	1646494	164649.3	506
0	1646810	164680.9	57
0	1648046	164804.5	8
0	1649714	164971.3	11
0	1649924	164992.3	77
0	1650338	165033.7	22
0	1651028	165102.7	87
0	1653118	165311.7	22
0	1653246	165324.5	4
0	1653400	165339.9	32
0	1653690	165368.9	9