version 3
run General-1-20230611-05:47:38-420095
attr configname General
attr datetime 20230611-05:47:38
attr datetimef 20230611-054738
attr experiment General
attr inifile omnetpp.ini
attr iterationvars $N=4
attr iterationvarsd N=4
attr iterationvarsf N=4-
attr measurement $N=4
attr network LN
attr processid 420095
attr repetition 1
attr replication #1
attr resultdir results
attr runnumber 1
attr seedset 1
itervar N 4
config network LN
config sim-time-limit 250000s
config **.tic[*].hopCount.result-recording-modes +vector
config *.numCentralNodes 4
config repeat 4

vector 0 LN.lnd[6] hopCount:vector ETV
attr interpolationmode none
attr recordingmode vector
attr source arrival
attr title "hop count"
vector 1 LN.lnd[0] hopCount:vector ETV
attr interpolationmode none
attr recordingmode vector
attr source arrival
attr title "hop count"
vector 2 LN.lnd[2] hopCount:vector ETV
attr interpolationmode none
attr recordingmode vector
attr source arrival
attr title "hop count"
vector 3 LN.lnd[14] hopCount:vector ETV
attr interpolationmode none
attr recordingmode vector
attr source arrival
attr title "hop count"
vector 4 LN.lnd[7] hopCount:vector ETV
attr interpolationmode none
attr recordingmode vector
attr source arrival
attr title "hop count"
vector 5 LN.lnd[11] hopCount:vector ETV
attr interpolationmode none
attr recordingmode vector
attr source arrival
attr title "hop count"
vector 6 LN.lnd[1] hopCount:vector ETV
attr interpolationmode none
attr recordingmode vector
attr source arrival
attr title "hop count"
vector 7 LN.lnd[15] hopCount:vector ETV
attr interpolationmode none
attr recordingmode vector
attr source arrival
attr title "hop count"
vector 8 LN.lnd[9] hopCount:vector ETV
attr interpolationmode none
attr recordingmode vector
attr source arrival
attr title "hop count"
vector 9 LN.lnd[17] hopCount:vector ETV
attr interpolationmode none
attr recordingmode vector
attr source arrival
attr title "hop count"
vector 10 LN.lnd[10] hopCount:vector ETV
attr interpolationmode none
attr recordingmode vector
attr source arrival
attr title "hop count"
vector 11 LN.lnd[12] hopCount:vector ETV
attr interpolationmode none
attr recordingmode vector
attr source arrival
attr title "hop count"
vector 12 LN.lnd[5] hopCount:vector ETV
attr interpolationmode none
attr recordingmode vector
attr source arrival
attr title "hop count"
vector 13 LN.lnd[3] hopCount:vector ETV
attr interpolationmode none
attr recordingmode vector
attr source arrival
attr title "hop count"
vector 14 LN.lnd[19] hopCount:vector ETV
attr interpolationmode none
attr recordingmode vector
attr source arrival
attr title "hop count"
vector 15 LN.lnd[8] hopCount:vector ETV
attr interpolationmode none
attr recordingmode vector
attr source arrival
attr title "hop count"
vector 16 LN.lnd[4] hopCount:vector ETV
attr interpolationmode none
attr recordingmode vector
attr source arrival
attr title "hop count"
vector 17 LN.lnd[18] hopCount:vector ETV
attr interpolationmode none
attr recordingmode vector
attr source arrival
attr title "hop count"
vector 18 LN.lnd[13] hopCount:vector ETV
attr interpolationmode none
attr recordingmode vector
attr source arrival
attr title "hop count"
vector 19 LN.lnd[16] hopCount:vector ETV
attr interpolationmode none
attr recordingmode vector
attr source arrival
attr title "hop count"
0	30	2.9	29
0	302	30.1	116
0	748	74.7	2
0	2530	252.9	3
0	3696	369.5	76
0	4750	474.9	87
0	5054	505.3	7
0	5776	577.5	52
0	7336	733.5	1
0	7590	758.9	71
0	8128	812.7	141
0	8542	854.1	73
0	8560	855.9	12
0	8772	877.1	2
0	10110	1010.9	31
0	10232	1023.1	20
0	11254	1125.3	78
0	13674	1367.3	14
0	15056	1505.5	13
0	16510	1650.9	261
0	17574	1757.3	311
0	21798	2179.7	59
0	22754	2275.3	69
0	24422	2442.1	61
0	28214	2821.3	1
0	28738	2873.7	30
0	33422	3342.1	57
0	34556	3455.5	72
0	36272	3627.1	159
0	38030	3802.9	17
0	39302	3930.1	17
0	40918	4091.7	24
0	42258	4225.7	15
0	42882	4288.1	77
0	43634	4363.3	30
0	44154	4415.3	33
0	45080	4507.9	1
0	45860	4585.9	8
0	46382	4638.1	16
0	48058	4805.7	63
0	52320	5231.9	15
0	52754	5275.3	147
0	52996	5299.5	64
0	54508	5450.7	5
0	54788	5478.7	46
0	54828	5482.7	4
0	55780	5577.9	8
0	56502	5650.1	7
0	58032	5803.1	66
0	60512	6051.1	3
0	60764	6076.3	14
0	63944	6394.3	16
0	66234	6623.3	26
0	67256	6725.5	142
0	71694	7169.3	62
0	71930	7192.9	82
0	72082	7208.1	51
0	72488	7248.7	86
0	72792	7279.1	26
0	72902	7290.1	4
0	73268	7326.7	67
0	73368	7336.7	82
0	74044	7404.3	51
0	75128	7512.7	116
0	76318	7631.7	85
0	76836	7683.5	74
0	77618	7761.7	177
0	78360	7835.9	19
0	78776	7877.5	164
0	81844	8184.3	9
0	82160	8215.9	234
0	82858	8285.7	123
0	83386	8338.5	9
0	86208	8620.7	254
0	87472	8747.1	55
0	91030	9102.9	101
0	93198	9319.7	88
0	93400	9339.9	26
0	96048	9604.7	57
0	96282	9628.1	49
0	97324	9732.3	20
0	98450	9844.9	20
0	98586	9858.5	34
0	101088	10108.7	27
0	101600	10159.9	101
0	106354	10635.3	78
0	108418	10841.7	56
0	112672	11267.1	125
0	112824	11282.3	131
0	114546	11454.5	47
0	114966	11496.5	18
0	115108	11510.7	15
0	115870	11586.9	124
0	117024	11702.3	11
0	117182	11718.1	18
0	118056	11805.5	150
0	119942	11994.1	99
0	121474	12147.3	105
0	124244	12424.3	7
0	125950	12594.9	48
0	125968	12596.7	4
0	127736	12773.5	55
0	128000	12799.9	75
0	129832	12983.1	17
0	131662	13166.1	29
0	131792	13179.1	48
0	132468	13246.7	20
0	132488	13248.7	7
0	133648	13364.7	17
0	135016	13501.5	73
0	135874	13587.3	320
0	136350	13634.9	28
0	139710	13970.9	50
0	140440	14043.9	36
0	141828	14182.7	5
0	142012	14201.1	165
0	142188	14218.7	152
0	142320	14231.9	82
0	145516	14551.5	14
0	145624	14562.3	61
0	147846	14784.5	91
0	149570	14956.9	20
0	151740	15173.9	15
0	153822	15382.1	5
0	155230	15522.9	17
0	155836	15583.5	5
0	157186	15718.5	3
0	157244	15724.3	20
0	157300	15729.9	46
0	159100	15909.9	4
0	159760	15975.9	71
0	160548	16054.7	40
0	164332	16433.1	51
0	166402	16640.1	52
0	170484	17048.3	157
0	172232	17223.1	16
0	172770	17276.9	26
0	174104	17410.3	8
0	175560	17555.9	88
0	175726	17572.5	12
0	177310	17730.9	183
0	178542	17854.1	34
0	180358	18035.7	9
0	180594	18059.3	25
0	182644	18264.3	83
0	182848	18284.7	9
0	183078	18307.7	1
0	183790	18378.9	140
0	185734	18573.3	156
0	186008	18600.7	101
0	186562	18656.1	40
0	190428	19042.7	22
0	192982	19298.1	30
0	195144	19514.3	135
0	195342	19534.1	119
0	195810	19580.9	35
0	196692	19669.1	7
0	199142	19914.1	124
0	200152	20015.1	122
0	201234	20123.3	16
0	202740	20273.9	1
0	204416	20441.5	55
0	207978	20797.7	66
0	207996	20799.5	8
0	208238	20823.7	87
0	208678	20867.7	17
0	217184	21718.3	46
0	220048	22004.7	69
0	225768	22576.7	78
0	226598	22659.7	155
0	226972	22697.1	14
0	228430	22842.9	25
0	228646	22864.5	57
0	229400	22939.9	455
0	237488	23748.7	28
0	239106	23910.5	8
0	243672	24367.1	42
0	244028	24402.7	3
0	244400	24439.9	49
0	247036	24703.5	99
0	248192	24819.1	23
0	248298	24829.7	28
0	249686	24968.5	29
0	250480	25047.9	82
0	251414	25141.3	213
0	252552	25255.1	63
0	252850	25284.9	28
0	253746	25374.5	83
0	254676	25467.5	33
0	255052	25505.1	6
0	255648	25564.7	292
0	256264	25626.3	29
0	259126	25912.5	80
0	262088	26208.7	31
0	263234	26323.3	112
0	263676	26367.5	150
0	264960	26495.9	217
0	266504	26650.3	109
0	266714	26671.3	26
0	268150	26814.9	2
0	271288	27128.7	30
0	272072	27207.1	19
0	272660	27265.9	67
0	273636	27363.5	43
0	274438	27443.7	3
0	274540	27453.9	30
0	274896	27489.5	10
0	275154	27515.3	11
0	275432	27543.1	43
0	275690	27568.9	13
0	276320	27631.9	62
0	278130	27812.9	43
0	278312	27831.1	51
0	280420	28041.9	81
0	280762	28076.1	14
0	281496	28149.5	101
0	285942	28594.1	41
0	286054	28605.3	63
0	287588	28758.7	139
0	287886	28788.5	7
0	288204	28820.3	4
0	289986	28998.5	4
0	290814	29081.3	32
0	290916	29091.5	20
0	292538	29253.7	18
0	295768	29576.7	68
0	296174	29617.3	48
0	296298	29629.7	75
0	296716	29671.5	8
0	297006	29700.5	1
0	297814	29781.3	106
0	298594	29859.3	29
0	300456	30045.5	45
0	300862	30086.1	3
0	302476	30247.5	246
0	307404	30740.3	54
0	313192	31319.1	101
0	315802	31580.1	39
0	315812	31581.1	2
0	316198	31619.7	79
0	317502	31750.1	131
0	319430	31942.9	120
0	320964	32096.3	2
0	321662	32166.1	7
0	324516	32451.5	215
0	325192	32519.1	25
0	326476	32647.5	5
0	327930	32792.9	43
0	328554	32855.3	19
0	329386	32938.5	22
0	333914	33391.3	237
0	334060	33405.9	8
0	335610	33560.9	60
0	336476	33647.5	10
0	336770	33676.9	107
0	337524	33752.3	60
0	337618	33761.7	2
0	337630	33762.9	10
0	339118	33911.7	121
0	340200	34019.9	140
0	341274	34127.3	8
0	341470	34146.9	91
0	341760	34175.9	65
0	343204	34320.3	66
0	343842	34384.1	68
0	344298	34429.7	2
0	345096	34509.5	4
0	345284	34528.3	18
0	346694	34669.3	45
0	347046	34704.5	23
0	351004	35100.3	99
0	353278	35327.7	9
0	354588	35458.7	248
0	354784	35478.3	109
0	356436	35643.5	17
0	357304	35730.3	120
0	357390	35738.9	28
0	359508	35950.7	124
0	360658	36065.7	5
0	369450	36944.9	7
0	371530	37152.9	154
0	379668	37966.7	137
0	383672	38367.1	12
0	386268	38626.7	10
0	387132	38713.1	3
0	388768	38876.7	73
0	389050	38904.9	17
0	389324	38932.3	6
0	389614	38961.3	75
0	390894	39089.3	17
0	392848	39284.7	29
0	393522	39352.1	89
0	393638	39363.7	62
0	393836	39383.5	74
0	394080	39407.9	38
0	394540	39453.9	21
0	395430	39542.9	110
0	396420	39641.9	68
0	396642	39664.1	57
0	397016	39701.5	94
0	397614	39761.3	88
0	399924	39992.3	46
0	400136	40013.5	20
0	400356	40035.5	190
0	401768	40176.7	33
0	401826	40182.5	33
0	402534	40253.3	75
0	405102	40510.1	4
0	407012	40701.1	208
0	408334	40833.3	38
0	409408	40940.7	41
0	409838	40983.7	32
0	410206	41020.5	11
0	411468	41146.7	12
0	414646	41464.5	45
0	414902	41490.1	20
0	415250	41524.9	81
0	415526	41552.5	17
0	415612	41561.1	27
0	416262	41626.1	10
0	416842	41684.1	65
0	416858	41685.7	13
0	417074	41707.3	107
0	417878	41787.7	62
0	419466	41946.5	90
0	420038	42003.7	100
0	420638	42063.7	1
0	421526	42152.5	83
0	422910	42290.9	134
0	425206	42520.5	64
0	425492	42549.1	26
0	425632	42563.1	57
0	426810	42680.9	145
0	430490	43048.9	21
0	430520	43051.9	14
0	431192	43119.1	191
0	431240	43123.9	33
0	431508	43150.7	5
0	433188	43318.7	82
0	439016	43901.5	46
0	440122	44012.1	84
0	440828	44082.7	93
0	440872	44087.1	24
0	440966	44096.5	85
0	444506	44450.5	29
0	445512	44551.1	27
0	448566	44856.5	78
0	451122	45112.1	48
0	453436	45343.5	2
0	454820	45481.9	35
0	456348	45634.7	59
0	456916	45691.5	95
0	457282	45728.1	9
0	457744	45774.3	12
0	457804	45780.3	19
0	458498	45849.7	18
0	458524	45852.3	8
0	460004	46000.3	15
0	460208	46020.7	24
0	464238	46423.7	122
0	464286	46428.5	20
0	465490	46548.9	100
0	468180	46817.9	29
0	469652	46965.1	6
0	471186	47118.5	341
0	471768	47176.7	11
0	472868	47286.7	22
0	475006	47500.5	51
0	475210	47520.9	9
0	478516	47851.5	37
0	481008	48100.7	6
0	481602	48160.1	8
0	481730	48172.9	68
0	485148	48514.7	3
0	485476	48547.5	1
0	491374	49137.3	34
0	492966	49296.5	72
0	494652	49465.1	63
0	496682	49668.1	17
0	499620	49961.9	85
0	502686	50268.5	12
0	502924	50292.3	167
0	503622	50362.1	25
0	504662	50466.1	47
0	507316	50731.5	111
0	510370	51036.9	1
0	511404	51140.3	2
0	511558	51155.7	98
0	512382	51238.1	139
0	512596	51259.5	34
0	516196	51619.5	43
0	519202	51920.1	222
0	519370	51936.9	4
0	519968	51996.7	16
0	520348	52034.7	65
0	520776	52077.5	18
0	522426	52242.5	2
0	523092	52309.1	41
0	523286	52328.5	10
0	525098	52509.7	3
0	526108	52610.7	3
0	526536	52653.5	3
0	527136	52713.5	8
0	527708	52770.7	5
0	529832	52983.1	80
0	531276	53127.5	12
0	536782	53678.1	190
0	539204	53920.3	69
0	541774	54177.3	125
0	543656	54365.5	31
0	544420	54441.9	45
0	544926	54492.5	26
0	545178	54517.7	46
0	546192	54619.1	87
0	549078	54907.7	113
0	550798	55079.7	43
0	551348	55134.7	18
0	552562	55256.1	132
0	553834	55383.3	40
0	554186	55418.5	109
0	556240	55623.9	103
0	556490	55648.9	4
0	560084	56008.3	24
0	561668	56166.7	187
0	563546	56354.5	30
0	563912	56391.1	222
0	564156	56415.5	59
0	564540	56453.9	63
0	569892	56989.1	13
0	570638	57063.7	133
0	572660	57265.9	174
0	573042	57304.1	71
0	573600	57359.9	77
0	575660	57565.9	96
0	575964	57596.3	88
0	578058	57805.7	13
0	581186	58118.5	115
0	583370	58336.9	96
0	583738	58373.7	213
0	585100	58509.9	65
0	587528	58752.7	99
0	588132	58813.1	4
0	588346	58834.5	127
0	588674	58867.3	174
0	591362	59136.1	2
0	596648	59664.7	3
0	598196	59819.5	69
0	600418	60041.7	83
0	600648	60064.7	153
0	601366	60136.5	3
0	603104	60310.3	223
0	603356	60335.5	14
0	604388	60438.7	4
0	604686	60468.5	59
0	605110	60510.9	264
0	606110	60610.9	82
0	606158	60615.7	37
0	606506	60650.5	168
0	608332	60833.1	6
0	608892	60889.1	131
0	609272	60927.1	87
0	609662	60966.1	82
0	610374	61037.3	20
0	611440	61143.9	23
0	611688	61168.7	11
0	615346	61534.5	58
0	617912	61791.1	177
0	617936	61793.5	16
0	621696	62169.5	67
0	622126	62212.5	38
0	622490	62248.9	176
0	623118	62311.7	38
0	625356	62535.5	34
0	625880	62587.9	64
0	627172	62717.1	56
0	628640	62863.9	7
0	631404	63140.3	2
0	632658	63265.7	38
0	634616	63461.5	26
0	636406	63640.5	8
0	637276	63727.5	98
0	638336	63833.5	7
0	639044	63904.3	18
0	641214	64121.3	138
0	646274	64627.3	44
0	646498	64649.7	80
0	646748	64674.7	41
0	649120	64911.9	47
0	649386	64938.5	20
0	649564	64956.3	12
0	649582	64958.1	12
0	652102	65210.1	12
0	655564	65556.3	10
0	656046	65604.5	17
0	656566	65656.5	91
0	657570	65756.9	102
0	657818	65781.7	50
0	659760	65975.9	139
0	661020	66101.9	109
0	662996	66299.5	45
0	663100	66309.9	62
0	665036	66503.5	82
0	666658	66665.7	4
0	666752	66675.1	18
0	668026	66802.5	23
0	668410	66840.9	9
0	668774	66877.3	73
0	670686	67068.5	197
0	671348	67134.7	36
0	671650	67164.9	29
0	671870	67186.9	9
0	672452	67245.1	52
0	672584	67258.3	1
0	673048	67304.7	22
0	675276	67527.5	87
0	679172	67917.1	22
0	679810	67980.9	61
0	680290	68028.9	44
0	681618	68161.7	42
0	681836	68183.5	10
0	683282	68328.1	3
0	685102	68510.1	123
0	685530	68552.9	6
0	687728	68772.7	5
0	687736	68773.5	2
0	689848	68984.7	3
0	690738	69073.7	69
0	692106	69210.5	79
0	692562	69256.1	2
0	694126	69412.5	225
0	694528	69452.7	80
0	695152	69515.1	41
0	696408	69640.7	237
0	696460	69645.9	39
0	696546	69654.5	10
0	696614	69661.3	25
0	697086	69708.5	73
0	697176	69717.5	71
0	701808	70180.7	140
0	702022	70202.1	41
0	704182	70418.1	12
0	704880	70487.9	13
0	705346	70534.5	13
0	707568	70756.7	71
0	707978	70797.7	97
0	708152	70815.1	6
0	708208	70820.7	25
0	710672	71067.1	10
0	714090	71408.9	36
0	715996	71599.5	180
0	718548	71854.7	16
0	718794	71879.3	128
0	720896	72089.5	26
0	721396	72139.5	197
0	722968	72296.7	6
0	724582	72458.1	60
0	724638	72463.7	20
0	726578	72657.7	42
0	727510	72750.9	33
0	728178	72817.7	85
0	729228	72922.7	123
0	731516	73151.5	2
0	735138	73513.7	1
0	735462	73546.1	2
0	736486	73648.5	10
0	736736	73673.5	232
0	736904	73690.3	125
0	736928	73692.7	1
0	737194	73719.3	81
0	738582	73858.1	12
0	739326	73932.5	4
0	740436	74043.5	37
0	741176	74117.5	2
0	741692	74169.1	2
0	741962	74196.1	41
0	744310	74430.9	168
0	744540	74453.9	51
0	744898	74489.7	14
0	745388	74538.7	34
0	750202	75020.1	17
0	750282	75028.1	2
0	752776	75277.5	72
0	753332	75333.1	157
0	754534	75453.3	2
0	754702	75470.1	36
0	755914	75591.3	2
0	756118	75611.7	30
0	757042	75704.1	171
0	758158	75815.7	22
0	760834	76083.3	55
0	761270	76126.9	99
0	761482	76148.1	90
0	763538	76353.7	35
0	766962	76696.1	9
0	767244	76724.3	142
0	768332	76833.1	31
0	768666	76866.5	44
0	770020	77001.9	35
0	771226	77122.5	42
0	771334	77133.3	48
0	772062	77206.1	19
0	772744	77274.3	42
0	775254	77525.3	157
0	777220	77721.9	160
0	780196	78019.5	18
0	780750	78074.9	26
0	781104	78110.3	55
0	786610	78660.9	24
0	788060	78805.9	19
0	789122	78912.1	125
0	789732	78973.1	102
0	789984	78998.3	61
0	794520	79451.9	151
0	796590	79658.9	106
0	800176	80017.5	78
0	801336	80133.5	59
0	801508	80150.7	3
0	803548	80354.7	8
0	805292	80529.1	48
0	806128	80612.7	136
0	807772	80777.1	63
0	811630	81162.9	17
0	811736	81173.5	48
0	814000	81399.9	8
0	814288	81428.7	42
0	814710	81470.9	40
0	814930	81492.9	87
0	815928	81592.7	20
0	816536	81653.5	126
0	818242	81824.1	2
0	818652	81865.1	48
0	822250	82224.9	3
0	823464	82346.3	9
0	826688	82668.7	5
0	828588	82858.7	47
0	829196	82919.5	18
0	829330	82932.9	1
0	830728	83072.7	61
0	830768	83076.7	30
0	831764	83176.3	17
0	837170	83716.9	39
0	838838	83883.7	27
0	839134	83913.3	10
0	841132	84113.1	42
0	841630	84162.9	69
0	842458	84245.7	41
0	842930	84292.9	35
0	844196	84419.5	81
0	844922	84492.1	39
0	845496	84549.5	35
0	847254	84725.3	30
0	850276	85027.5	113
0	850866	85086.5	21
0	852136	85213.5	8
0	857054	85705.3	66
0	857370	85736.9	8
0	858526	85852.5	3
0	859796	85979.5	101
0	861062	86106.1	7
0	862334	86233.3	6
0	862712	86271.1	86
0	863108	86310.7	125
0	864572	86457.1	10
0	866080	86607.9	39
0	867422	86742.1	8
0	872472	87247.1	1
0	872602	87260.1	21
0	872770	87276.9	119
0	874102	87410.1	62
0	876506	87650.5	37
0	878952	87895.1	390
0	879268	87926.7	73
0	881930	88192.9	166
0	885852	88585.1	159
0	888762	88876.1	23
0	889036	88903.5	58
0	889374	88937.3	186
0	890018	89001.7	158
0	891740	89173.9	129
0	892284	89228.3	7
0	896310	89630.9	45
0	896468	89646.7	2
0	898542	89854.1	79
0	899742	89974.1	57
0	900490	90048.9	21
0	900716	90071.5	46
0	900816	90081.5	43
0	900982	90098.1	64
0	902372	90237.1	55
0	904788	90478.7	43
0	909194	90919.3	5
0	909400	90939.9	21
0	913310	91330.9	175
0	914588	91458.7	36
0	915590	91558.9	117
0	915868	91586.7	193
0	916396	91639.5	4
0	921182	92118.1	122
0	925410	92540.9	17
0	926326	92632.5	2
0	926584	92658.3	66
0	927844	92784.3	7
0	928544	92854.3	2
0	928700	92869.9	13
0	929734	92973.3	62
0	931654	93165.3	12
0	932922	93292.1	26
0	933808	93380.7	256
0	933980	93397.9	10
0	935364	93536.3	94
0	936008	93600.7	45
0	936710	93670.9	71
0	939186	93918.5	153
0	939824	93982.3	81
0	940750	94074.9	16
0	940914	94091.3	115
0	941578	94157.7	30
0	942044	94204.3	117
0	942210	94220.9	43
0	943568	94356.7	8
0	945906	94590.5	48
0	948516	94851.5	49
0	949614	94961.3	76
0	950586	95058.5	28
0	951114	95111.3	5
0	952216	95221.5	74
0	952478	95247.7	31
0	952856	95285.5	2
0	957560	95755.9	6
0	960086	96008.5	80
0	961766	96176.5	4
0	964186	96418.5	3
0	964512	96451.1	44
0	967672	96767.1	14
0	968454	96845.3	20
0	968488	96848.7	16
0	969222	96922.1	2
0	970062	97006.1	125
0	970406	97040.5	109
0	972790	97278.9	33
0	975508	97550.7	93
0	976430	97642.9	288
0	977734	97773.3	25
0	979910	97990.9	64
0	980172	98017.1	26
0	980336	98033.5	127
0	983904	98390.3	20
0	984034	98403.3	28
0	984650	98464.9	6
0	985788	98578.7	4
0	986346	98634.5	1
0	990496	99049.5	31
0	991618	99161.7	87
0	993188	99318.7	36
0	993968	99396.7	9
0	994974	99497.3	3
0	995510	99550.9	96
0	997636	99763.5	30
0	998048	99804.7	207
0	998200	99819.9	47
0	998750	99874.9	8
0	1001470	100146.9	5
0	1001834	100183.3	152
0	1002634	100263.3	36
0	1003036	100303.5	105
0	1005442	100544.1	25
0	1005614	100561.3	85
0	1006278	100627.7	20
0	1007108	100710.7	121
0	1008930	100892.9	11
0	1009078	100907.7	31
0	1009484	100948.3	11
0	1010140	101013.9	401
0	1010958	101095.7	12
0	1013400	101339.9	159
0	1014082	101408.1	56
0	1015112	101511.1	1
0	1015278	101527.7	28
0	1016350	101634.9	69
0	1016582	101658.1	67
0	1017178	101717.7	1
0	1019516	101951.5	33
0	1020600	102059.9	42
0	1020720	102071.9	52
0	1021542	102154.1	17
0	1023172	102317.1	17
0	1023546	102354.5	119
0	1024172	102417.1	24
0	1026130	102612.9	8
0	1026502	102650.1	14
0	1027170	102716.9	42
0	1027542	102754.1	76
0	1027992	102799.1	14
0	1028030	102802.9	8
0	1028124	102812.3	44
0	1028320	102831.9	2
0	1029092	102909.1	48
0	1031992	103199.1	117
0	1036286	103628.5	60
0	1036824	103682.3	47
0	1037992	103799.1	120
0	1038360	103835.9	4
0	1040758	104075.7	247
0	1041212	104121.1	14
0	1042436	104243.5	12
0	1042654	104265.3	6
0	1044810	104480.9	68
0	1045432	104543.1	71
0	1045920	104591.9	125
0	1046396	104639.5	24
0	1047000	104699.9	50
0	1048004	104800.3	125
0	1050062	105006.1	49
0	1051358	105135.7	35
0	1053596	105359.5	51
0	1054798	105479.7	81
0	1055154	105515.3	89
0	1056276	105627.5	55
0	1058564	105856.3	17
0	1060266	106026.5	14
0	1062522	106252.1	24
0	1064512	106451.1	299
0	1065552	106555.1	98
0	1066172	106617.1	19
0	1067144	106714.3	4
0	1067634	106763.3	45
0	1068074	106807.3	11
0	1068212	106821.1	62
0	1068932	106893.1	118
0	1069852	106985.1	15
0	1070570	107056.9	11
0	1071890	107188.9	53
0	1072938	107293.7	121
0	1073362	107336.1	4
0	1077052	107705.1	45
0	1077534	107753.3	89
0	1077794	107779.3	29
0	1077924	107792.3	69
0	1078562	107856.1	136
0	1079316	107931.5	21
0	1081840	108183.9	30
0	1082566	108256.5	12
0	1095164	109516.3	46
0	1095944	109594.3	6
0	1097320	109731.9	6
0	1098246	109824.5	434
0	1098476	109847.5	165
0	1098598	109859.7	3
0	1099760	109975.9	162
0	1100180	110017.9	78
0	1101096	110109.5	81
0	1102046	110204.5	1
0	1103618	110361.7	89
0	1105892	110589.1	54
0	1107690	110768.9	10
0	1108520	110851.9	300
0	1112018	111201.7	9
0	1114112	111411.1	3
0	1115436	111543.5	17
0	1116178	111617.7	174
0	1117894	111789.3	50
0	1120630	112062.9	5
0	1123824	112382.3	130
0	1124634	112463.3	10
0	1125450	112544.9	5
0	1126050	112604.9	11
0	1126544	112654.3	15
0	1128044	112804.3	9
0	1129234	112923.3	67
0	1129804	112980.3	85
0	1130306	113030.5	74
0	1130524	113052.3	4
0	1131960	113195.9	59
0	1134944	113494.3	143
0	1136862	113686.1	47
0	1141744	114174.3	21
0	1144502	114450.1	153
0	1145312	114531.1	31
0	1145612	114561.1	8
0	1146418	114641.7	133
0	1147234	114723.3	4
0	1149380	114937.9	54
0	1151642	115164.1	10
0	1152348	115234.7	15
0	1153240	115323.9	27
0	1153644	115364.3	159
0	1154510	115450.9	123
0	1162386	116238.5	19
0	1165482	116548.1	24
0	1168660	116865.9	84
0	1171010	117100.9	75
0	1173226	117322.5	82
0	1174552	117455.1	14
0	1175734	117573.3	41
0	1178524	117852.3	50
0	1180118	118011.7	7
0	1182072	118207.1	73
0	1182706	118270.5	208
0	1184524	118452.3	100
0	1184976	118497.5	16
0	1186584	118658.3	162
0	1187622	118762.1	22
0	1187882	118788.1	160
0	1188082	118808.1	69
0	1190540	119053.9	129
0	1193556	119355.5	45
0	1193800	119379.9	35
0	1195638	119563.7	96
0	1195718	119571.7	16
0	1196116	119611.5	115
0	1196992	119699.1	1
0	1197508	119750.7	112
0	1199134	119913.3	5
0	1202384	120238.3	7
0	1203436	120343.5	155
0	1204040	120403.9	109
0	1206310	120630.9	31
0	1206326	120632.5	12
0	1207130	120712.9	161
0	1207210	120720.9	54
0	1207896	120789.5	11
0	1208770	120876.9	12
0	1209510	120950.9	7
0	1209814	120981.3	11
0	1210950	121094.9	36
0	1212630	121262.9	105
0	1219292	121929.1	71
0	1220768	122076.7	5
0	1221618	122161.7	33
0	1224594	122459.3	7
0	1228800	122879.9	77
0	1229564	122956.3	213
0	1231012	123101.1	22
0	1233836	123383.5	4
0	1235604	123560.3	33
0	1235978	123597.7	1
0	1236956	123695.5	85
0	1239176	123917.5	176
0	1239758	123975.7	107
0	1239986	123998.5	128
0	1240948	124094.7	259
0	1241382	124138.1	9
0	1242726	124272.5	377
0	1243538	124353.7	64
0	1244068	124406.7	69
0	1244274	124427.3	8
0	1245280	124527.9	2
0	1245962	124596.1	50
0	1248310	124830.9	77
0	1248438	124843.7	26
0	1249324	124932.3	77
0	1250314	125031.3	23
0	1250496	125049.5	28
0	1254428	125442.7	291
0	1255054	125505.3	15
0	1256634	125663.3	22
0	1256718	125671.7	79
0	1258340	125833.9	59
0	1258438	125843.7	23
0	1260692	126069.1	30
0	1260808	126080.7	32
0	1261264	126126.3	111
0	1262906	126290.5	10
0	1263760	126375.9	54
0	1264254	126425.3	67
0	1264408	126440.7	51
0	1264860	126485.9	40
0	1265418	126541.7	72
0	1267120	126711.9	30
0	1268000	126799.9	14
0	1269198	126919.7	261
0	1270720	127071.9	104
0	1276082	127608.1	49
0	1276556	127655.5	39
0	1277556	127755.5	2
0	1278018	127801.7	126
0	1279374	127937.3	106
0	1280118	128011.7	95
0	1281570	128156.9	37
0	1284334	128433.3	87
0	1287548	128754.7	24
0	1289358	128935.7	95
0	1290440	129043.9	195
0	1291078	129107.7	6
0	1292432	129243.1	31
0	1293580	129357.9	35
0	1297818	129781.7	15
0	1298206	129820.5	52
0	1300416	130041.5	40
0	1301084	130108.3	35
0	1302424	130242.3	5
0	1303848	130384.7	1
0	1304418	130441.7	20
0	1305326	130532.5	193
0	1305574	130557.3	90
0	1305882	130588.1	18
0	1306262	130626.1	10
0	1307452	130745.1	6
0	1307944	130794.3	131
0	1312598	131259.7	18
0	1313760	131375.9	97
0	1314398	131439.7	141
0	1315438	131543.7	15
0	1317700	131769.9	2
0	1320220	132021.9	146
0	1322502	132250.1	146
0	1322588	132258.7	74
0	1323072	132307.1	9
0	1323544	132354.3	35
0	1323624	132362.3	10
0	1324544	132454.3	26
0	1326406	132640.5	63
0	1327748	132774.7	55
0	1328060	132805.9	20
0	1330270	133026.9	156
0	1332326	133232.5	10
0	1333684	133368.3	99
0	1333908	133390.7	128
0	1334038	133403.7	21
0	1334174	133417.3	28
0	1335832	133583.1	148
0	1338160	133815.9	3
0	1339118	133911.7	39
0	1340124	134012.3	65
0	1340862	134086.1	66
0	1342712	134271.1	75
0	1342880	134287.9	138
0	1343360	134335.9	8
0	1345554	134555.3	8
0	1345634	134563.3	5
0	1345664	134566.3	12
0	1346414	134641.3	112
0	1347992	134799.1	97
0	1351040	135103.9	138
0	1353148	135314.7	33
0	1354008	135400.7	39
0	1354704	135470.3	19
0	1358724	135872.3	103
0	1360314	136031.3	1
0	1361486	136148.5	41
0	1362820	136281.9	39
0	1365464	136546.3	82
0	1365864	136586.3	25
0	1367036	136703.5	20
0	1367288	136728.7	31
0	1368022	136802.1	189
0	1368454	136845.3	121
0	1369260	136925.9	61
0	1369272	136927.1	2
0	1372554	137255.3	12
0	1372848	137284.7	53
0	1374498	137449.7	126
0	1375470	137546.9	1
0	1377804	137780.3	10
0	1378122	137812.1	17
0	1378858	137885.7	1
0	1379276	137927.5	2
0	1381192	138119.1	2
0	1381456	138145.5	65
0	1382672	138267.1	1
0	1383710	138370.9	35
0	1384062	138406.1	64
0	1386328	138632.7	18
0	1386666	138666.5	83
0	1386818	138681.7	53
0	1387084	138708.3	52
0	1390048	139004.7	13
0	1390190	139018.9	18
0	1390550	139054.9	170
0	1391928	139192.7	2
0	1392310	139230.9	3
0	1392584	139258.3	22
0	1393542	139354.1	37
0	1395012	139501.1	70
0	1396928	139692.7	2
0	1398224	139822.3	14
0	1399078	139907.7	65
0	1400070	140006.9	28
0	1401010	140100.9	4
0	1403038	140303.7	4
0	1403750	140374.9	110
0	1404898	140489.7	86
0	1404984	140498.3	2
0	1405670	140566.9	80
0	1405938	140593.7	206
0	1406996	140699.5	3
0	1408224	140822.3	72
0	1409518	140951.7	2
0	1411244	141124.3	3
0	1415546	141554.5	6
0	1415938	141593.7	31
0	1416778	141677.7	54
0	1417882	141788.1	16
0	1418802	141880.1	6
0	1420076	142007.5	19
0	1421580	142157.9	11
0	1422824	142282.3	30
0	1424672	142467.1	73
0	1427326	142732.5	24
0	1427546	142754.5	95
0	1428146	142814.5	48
0	1431754	143175.3	10
0	1432092	143209.1	107
0	1435278	143527.7	20
0	1436200	143619.9	176
0	1439050	143904.9	14
0	1441550	144154.9	73
0	1442526	144252.5	10
0	1444224	144422.3	24
0	1444354	144435.3	129
0	1445230	144522.9	3
0	1445348	144534.7	10
0	1445806	144580.5	107
0	1447886	144788.5	58
0	1448774	144877.3	49
0	1448814	144881.3	22
0	1448864	144886.3	12
0	1450054	145005.3	9
0	1451736	145173.5	47
0	1451842	145184.1	3
0	1454200	145419.9	27
0	1454662	145466.1	11
0	1456030	145602.9	50
0	1456514	145651.3	101
0	1456996	145699.5	13
0	1459160	145915.9	35
0	1460788	146078.7	154
0	1465850	146584.9	32
0	1467338	146733.7	24
0	1467686	146768.5	10
0	1468190	146818.9	67
0	1468518	146851.7	1
0	1468640	146863.9	86
0	1470928	147092.7	173
0	1472382	147238.1	56
0	1474620	147461.9	1
0	1476462	147646.1	109
0	1478846	147884.5	45
0	1481430	148142.9	13
0	1481940	148193.9	11
0	1483840	148383.9	111
0	1483964	148396.3	15
0	1484070	148406.9	23
0	1487444	148744.3	77
0	1487778	148777.7	101
0	1487894	148789.3	18
0	1489242	148924.1	9
0	1492722	149272.1	71
0	1493100	149309.9	165
0	1493370	149336.9	66
0	1494542	149454.1	40
0	1495826	149582.5	2
0	1496866	149686.5	25
0	1498044	149804.3	37
0	1502088	150208.7	47
0	1503118	150311.7	63
0	1505474	150547.3	5
0	1506420	150641.9	84
0	1506842	150684.1	191
0	1508100	150809.9	6
0	1509062	150906.1	57
0	1509550	150954.9	1
0	1509978	150997.7	3
0	1511196	151119.5	23
0	1512532	151253.1	49
0	1517482	151748.1	69
0	1519740	151973.9	3
0	1520584	152058.3	44
0	1521104	152110.3	62
0	1521292	152129.1	15
0	1523904	152390.3	1
0	1524258	152425.7	102
0	1525658	152565.7	132
0	1526668	152666.7	132
0	1528014	152801.3	1
0	1529118	152911.7	95
0	1529378	152937.7	64
0	1531526	153152.5	185
0	1534730	153472.9	3
0	1535330	153532.9	166
0	1535714	153571.3	257
0	1536174	153617.3	35
0	1536662	153666.1	3
0	1537068	153706.7	2
0	1539492	153949.1	76
0	1543368	154336.7	82
0	1545266	154526.5	13
0	1545952	154595.1	2
0	1546010	154600.9	2
0	1547984	154798.3	109
0	1548288	154828.7	4
0	1548574	154857.3	41
0	1548620	154861.9	25
0	1550280	155027.9	1
0	1553832	155383.1	5
0	1554988	155498.7	140
0	1557458	155745.7	4
0	1558438	155843.7	139
0	1559252	155925.1	5
0	1561578	156157.7	5
0	1563926	156392.5	479
0	1567704	156770.3	2
0	1569304	156930.3	36
0	1569778	156977.7	54
0	1570186	157018.5	35
0	1570526	157052.5	48
0	1575572	157557.1	286
0	1579504	157950.3	33
0	1579934	157993.3	24
0	1581574	158157.3	26
0	1583684	158368.3	32
0	1583804	158380.3	77
0	1584086	158408.5	56
0	1584532	158453.1	2
0	1585378	158537.7	100
0	1585728	158572.7	1
0	1587490	158748.9	10
0	1588032	158803.1	88
0	1588744	158874.3	37
0	1588886	158888.5	21
0	1590610	159060.9	5
0	1591796	159179.5	51
0	1593902	159390.1	35
0	1594232	159423.1	37
0	1595336	159533.5	4
0	1596998	159699.7	107
0	1597204	159720.3	2
0	1597542	159754.1	26
0	1597730	159772.9	6
0	1598158	159815.7	132
0	1600758	160075.7	15
0	1601398	160139.7	72
0	1602038	160203.7	334
0	1602290	160228.9	61
0	1603470	160346.9	57
0	1604006	160400.5	69
0	1604092	160409.1	5
0	1605840	160583.9	2
0	1605926	160592.5	69
0	1606608	160660.7	89
0	1610820	161081.9	27
0	1613222	161322.1	34
0	1614866	161486.5	13
0	1614986	161498.5	84
0	1615422	161542.1	109
0	1615486	161548.5	10
0	1616758	161675.7	6
0	1617830	161782.9	51
0	1618554	161855.3	50
0	1619250	161924.9	64
0	1620042	162004.1	130
0	1622178	162217.7	54
0	1623930	162392.9	66
0	1626180	162617.9	19
0	1627252	162725.1	34
0	1628096	162809.5	24
0	1628176	162817.5	5
0	1629020	162901.9	97
0	1630098	163009.7	3
0	1631652	163165.1	16
0	1632248	163224.7	203
0	1632496	163249.5	212
0	1632938	163293.7	115
0	1634644	163464.3	104
0	1639852	163985.1	60
0	1640456	164045.5	30
0	1641856	164185.5	90
0	1643448	164344.7	2
0	1643814	164381.3	80
0	1648304	164830.3	125
0	1651524	165152.3	44
0	1653100	165309.9	271
0	1654230	165422.9	152
0	1655904	165590.3	69
0	1656812	165681.1	10
0	1657388	165738.7	105
0	1660652	166065.1	18
0	1661774	166177.3	164
0	1662328	166232.7	4
0	1662738	166273.7	85
0	1663606	166360.5	7
0	1667412	166741.1	19
0	1672244	167224.3	88
0	1674402	167440.1	9
0	1675928	167592.7	19
0	1676034	167603.3	33
0	1676890	167688.9	50
0	1679618	167961.7	5
0	1681886	168188.5	18
0	1683376	168337.5	18
0	1685756	168575.5	51