version 3
run General-126-20230611-05:41:42-416646
attr configname General
attr datetime 20230611-05:41:42
attr datetimef 20230611-054142
attr experiment General
attr inifile omnetpp.ini
attr iterationvars $N=97
attr iterationvarsd N=97
attr iterationvarsf N=97-
attr measurement $N=97
attr network LN
attr processid 416646
attr repetition 2
attr replication #2
attr resultdir results
attr runnumber 126
attr seedset 126
itervar N 97
config network LN
config sim-time-limit 250000s
config **.tic[*].hopCount.result-recording-modes +vector
config *.numCentralNodes 97
config repeat 4

vector 0 LN.lnd[7] hopCount:vector ETV
attr interpolationmode none
attr recordingmode vector
attr source arrival
attr title "hop count"
vector 1 LN.lnd[0] hopCount:vector ETV
attr interpolationmode none
attr recordingmode vector
attr source arrival
attr title "hop count"
vector 2 LN.lnd[2] hopCount:vector ETV
attr interpolationmode none
attr recordingmode vector
attr source arrival
attr title "hop count"
vector 3 LN.lnd[8] hopCount:vector ETV
attr interpolationmode none
attr recordingmode vector
attr source arrival
attr title "hop count"
vector 4 LN.lnd[9] hopCount:vector ETV
attr interpolationmode none
attr recordingmode vector
attr source arrival
attr title "hop count"
vector 5 LN.lnd[10] hopCount:vector ETV
attr interpolationmode none
attr recordingmode vector
attr source arrival
attr title "hop count"
vector 6 LN.lnd[13] hopCount:vector ETV
attr interpolationmode none
attr recordingmode vector
attr source arrival
attr title "hop count"
vector 7 LN.lnd[12] hopCount:vector ETV
attr interpolationmode none
attr recordingmode vector
attr source arrival
attr title "hop count"
vector 8 LN.lnd[19] hopCount:vector ETV
attr interpolationmode none
attr recordingmode vector
attr source arrival
attr title "hop count"
vector 9 LN.lnd[1] hopCount:vector ETV
attr interpolationmode none
attr recordingmode vector
attr source arrival
attr title "hop count"
vector 10 LN.lnd[5] hopCount:vector ETV
attr interpolationmode none
attr recordingmode vector
attr source arrival
attr title "hop count"
vector 11 LN.lnd[6] hopCount:vector ETV
attr interpolationmode none
attr recordingmode vector
attr source arrival
attr title "hop count"
vector 12 LN.lnd[14] hopCount:vector ETV
attr interpolationmode none
attr recordingmode vector
attr source arrival
attr title "hop count"
vector 13 LN.lnd[15] hopCount:vector ETV
attr interpolationmode none
attr recordingmode vector
attr source arrival
attr title "hop count"
vector 14 LN.lnd[16] hopCount:vector ETV
attr interpolationmode none
attr recordingmode vector
attr source arrival
attr title "hop count"
vector 15 LN.lnd[17] hopCount:vector ETV
attr interpolationmode none
attr recordingmode vector
attr source arrival
attr title "hop count"
vector 16 LN.lnd[18] hopCount:vector ETV
attr interpolationmode none
attr recordingmode vector
attr source arrival
attr title "hop count"
vector 17 LN.lnd[3] hopCount:vector ETV
attr interpolationmode none
attr recordingmode vector
attr source arrival
attr title "hop count"
vector 18 LN.lnd[11] hopCount:vector ETV
attr interpolationmode none
attr recordingmode vector
attr source arrival
attr title "hop count"
vector 19 LN.lnd[4] hopCount:vector ETV
attr interpolationmode none
attr recordingmode vector
attr source arrival
attr title "hop count"
0	148	14.7	147
0	778	77.7	60
0	2634	263.3	67
0	3258	325.7	32
0	3562	356.1	237
0	4438	443.7	28
0	6214	621.3	123
0	6588	658.7	149
0	6770	676.9	108
0	7106	710.5	2
0	8890	888.9	5
0	9000	899.9	47
0	10090	1008.9	9
0	10492	1049.1	55
0	11364	1136.3	247
0	12288	1228.7	177
0	12612	1261.1	30
0	13190	1318.9	111
0	13222	1322.1	26
0	14256	1425.5	1
0	14426	1442.5	86
0	16850	1684.9	257
0	17220	1721.9	2
0	20346	2034.5	105
0	21448	2144.7	181
0	23332	2333.1	55
0	24274	2427.3	31
0	24446	2444.5	37
0	25064	2506.3	87
0	27748	2774.7	1
0	28654	2865.3	10
0	29774	2977.3	112
0	32334	3233.3	32
0	32900	3289.9	10
0	32990	3298.9	65
0	33180	3317.9	1
0	33428	3342.7	102
0	34104	3410.3	48
0	36542	3654.1	34
0	37072	3707.1	153
0	37886	3788.5	458
0	38008	3800.7	20
0	45236	4523.5	324
0	45500	4549.9	9
0	45680	4567.9	26
0	46140	4613.9	96
0	46700	4669.9	38
0	49188	4918.7	296
0	49848	4984.7	71
0	50340	5033.9	50
0	53256	5325.5	27
0	54474	5447.3	219
0	55898	5589.7	14
0	56284	5628.3	136
0	56700	5669.9	32
0	58016	5801.5	186
0	59082	5908.1	81
0	59628	5962.7	129
0	60452	6045.1	47
0	62090	6208.9	46
0	64146	6414.5	15
0	66554	6655.3	33
0	66686	6668.5	85
0	69644	6964.3	185
0	70418	7041.7	68
0	71336	7133.5	54
0	72986	7298.5	67
0	75152	7515.1	61
0	75990	7598.9	80
0	76294	7629.3	168
0	76362	7636.1	49
0	77114	7711.3	54
0	77488	7748.7	27
0	78196	7819.5	85
0	79082	7908.1	146
0	79628	7962.7	133
0	80410	8040.9	3
0	84784	8478.3	212
0	85414	8541.3	89
0	86014	8601.3	113
0	87216	8721.5	90
0	88788	8878.7	84
0	92200	9219.9	16
0	92556	9255.5	9
0	94724	9472.3	88
0	94748	9474.7	5
0	94872	9487.1	84
0	95512	9551.1	90
0	97264	9726.3	199
0	97412	9741.1	89
0	98910	9890.9	34
0	99278	9927.7	117
0	100946	10094.5	8
0	100990	10098.9	18
0	101400	10139.9	3
0	101410	10140.9	6
0	101666	10166.5	175
0	102378	10237.7	86
0	102672	10267.1	74
0	104138	10413.7	7
0	106300	10629.9	210
0	107096	10709.5	5
0	110758	11075.7	16
0	111152	11115.1	103
0	112166	11216.5	64
0	113666	11366.5	111
0	114366	11436.5	77
0	115050	11504.9	11
0	115986	11598.5	81
0	119516	11951.5	324
0	119844	11984.3	8
0	121044	12104.3	150
0	121256	12125.5	59
0	121774	12177.3	56
0	126104	12610.3	103
0	127080	12707.9	196
0	130686	13068.5	93
0	130936	13093.5	56
0	137904	13790.3	17
0	138650	13864.9	1
0	139160	13915.9	24
0	139356	13935.5	10
0	139890	13988.9	43
0	153780	15377.9	132
0	154380	15437.9	7
0	154744	15474.3	81
0	154878	15487.7	66
0	157644	15764.3	122
0	158628	15862.7	20
0	159306	15930.5	284
0	159832	15983.1	206
0	163648	16364.7	92
0	164280	16427.9	23
0	164604	16460.3	181
0	164934	16493.3	43
0	165174	16517.3	146
0	166050	16604.9	82
0	166518	16651.7	137
0	167446	16744.5	6
0	167596	16759.5	76
0	168096	16809.5	4
0	168284	16828.3	14
0	172298	17229.7	26
0	175390	17538.9	33
0	176012	17601.1	7
0	181372	18137.1	18
0	183414	18341.3	307
0	185958	18595.7	107
0	186674	18667.3	114
0	188682	18868.1	14
0	188926	18892.5	61
0	189968	18996.7	59
0	191114	19111.3	44
0	193398	19339.7	365
0	194196	19419.5	109
0	194484	19448.3	215
0	194774	19477.3	51
0	202042	20204.1	32
0	202750	20274.9	6
0	202820	20281.9	1
0	203328	20332.7	22
0	204078	20407.7	54
0	204200	20419.9	52
0	204660	20465.9	71
0	204678	20467.7	1
0	206580	20657.9	1
0	209252	20925.1	170
0	210262	21026.1	21
0	210782	21078.1	47
0	211150	21114.9	31
0	212490	21248.9	219
0	212746	21274.5	94
0	215156	21515.5	368
0	217214	21721.3	221
0	217300	21729.9	6
0	218606	21860.5	30
0	221306	22130.5	92
0	221628	22162.7	9
0	222674	22267.3	89
0	223858	22385.7	44
0	224260	22425.9	16
0	227938	22793.7	1
0	228074	22807.3	27
0	236380	23637.9	35
0	237182	23718.1	36
0	237784	23778.3	150
0	239370	23936.9	113
0	240424	24042.3	110
0	240720	24071.9	153
0	241516	24151.5	246
0	245588	24558.7	114
0	245856	24585.5	10
0	246986	24698.5	60
0	247638	24763.7	4
0	248110	24810.9	2
0	249944	24994.3	57
0	251738	25173.7	19
0	251992	25199.1	1
0	252614	25261.3	20
0	253160	25315.9	320
0	253438	25343.7	69
0	255636	25563.5	179
0	258074	25807.3	5
0	259110	25910.9	109
0	260800	26079.9	116
0	264982	26498.1	203
0	266118	26611.7	126
0	267668	26766.7	12
0	269022	26902.1	68
0	271700	27169.9	17
0	271708	27170.7	4
0	272196	27219.5	160
0	273420	27341.9	16
0	273698	27369.7	4
0	274408	27440.7	20
0	274786	27478.5	5
0	274962	27496.1	119
0	277294	27729.3	33
0	277808	27780.7	375
0	279308	27930.7	64
0	280392	28039.1	6
0	280884	28088.3	63
0	281432	28143.1	296
0	281988	28198.7	48
0	285436	28543.5	58
0	287130	28712.9	1
0	287266	28726.5	90
0	287452	28745.1	114
0	287654	28765.3	17
0	288576	28857.5	124
0	290146	29014.5	40
0	292964	29296.3	184
0	297006	29700.5	53
0	297382	29738.1	186
0	298748	29874.7	324
0	299104	29910.3	76
0	299884	29988.3	68
0	300770	30076.9	11
0	301234	30123.3	23
0	302052	30205.1	59
0	302810	30280.9	65
0	304074	30407.3	3
0	304584	30458.3	91
0	305622	30562.1	2
0	307654	30765.3	99
0	308190	30818.9	168
0	310616	31061.5	101
0	315086	31508.5	331
0	316196	31619.5	189
0	316950	31694.9	90
0	317622	31762.1	23
0	318696	31869.5	162
0	320652	32065.1	138
0	321684	32168.3	53
0	322948	32294.7	8
0	324112	32411.1	28
0	324470	32446.9	36
0	327142	32714.1	90
0	329308	32930.7	108
0	333830	33382.9	121
0	334456	33445.5	175
0	334860	33485.9	132
0	335538	33553.7	50
0	336814	33681.3	2
0	338082	33808.1	121
0	339456	33945.5	74
0	342500	34249.9	84
0	343084	34308.3	236
0	343346	34334.5	6
0	343870	34386.9	4
0	343952	34395.1	14
0	344692	34469.1	6
0	347520	34751.9	85
0	348542	34854.1	37
0	348986	34898.5	4
0	351808	35180.7	1
0	353338	35333.7	33
0	355280	35527.9	371
0	355718	35571.7	213
0	357796	35779.5	194
0	359956	35995.5	1
0	360732	36073.1	114
0	360964	36096.3	155
0	363116	36311.5	163
0	365642	36564.1	70
0	368506	36850.5	1
0	368844	36884.3	47
0	370862	37086.1	122
0	371176	37117.5	1
0	371806	37180.5	1
0	372452	37245.1	52
0	373816	37381.5	58
0	375164	37516.3	27
0	376276	37627.5	40
0	380260	38025.9	186
0	380312	38031.1	33
0	381018	38101.7	111
0	381388	38138.7	36
0	382832	38283.1	48
0	383228	38322.7	27
0	383868	38386.7	18
0	384718	38471.7	17
0	385816	38581.5	119
0	388568	38856.7	60
0	389162	38916.1	158
0	389342	38934.1	3
0	390928	39092.7	63
0	393806	39380.5	25
0	394450	39444.9	76
0	394568	39456.7	26
0	394848	39484.7	72
0	396530	39652.9	92
0	398878	39887.7	79
0	401202	40120.1	12
0	401626	40162.5	37
0	404682	40468.1	47
0	404966	40496.5	274
0	410214	41021.3	73
0	411474	41147.3	215
0	415992	41599.1	70
0	416414	41641.3	41
0	418696	41869.5	18
0	420714	42071.3	2
0	421640	42163.9	39
0	421904	42190.3	248
0	424026	42402.5	60
0	424216	42421.5	162
0	424560	42455.9	124
0	424734	42473.3	16
0	425750	42574.9	27
0	426044	42604.3	143
0	426106	42610.5	36
0	426178	42617.7	12
0	426864	42686.3	43
0	429452	42945.1	241
0	434786	43478.5	154
0	435954	43595.3	39
0	436156	43615.5	76
0	436582	43658.1	105
0	437952	43795.1	389
0	438648	43864.7	182
0	439526	43952.5	152
0	439978	43997.7	20
0	440390	44038.9	177
0	440838	44083.7	6
0	442174	44217.3	1
0	443040	44303.9	67
0	445034	44503.3	300
0	449580	44957.9	1
0	449724	44972.3	94
0	450862	45086.1	79
0	451810	45180.9	1
0	452248	45224.7	27
0	452316	45231.5	11
0	452574	45257.3	39
0	453268	45326.7	49
0	454790	45478.9	16
0	455968	45596.7	1
0	456776	45677.5	70
0	456812	45681.1	24
0	457812	45781.1	109
0	458410	45840.9	74
0	458894	45889.3	1
0	465890	46588.9	11
0	470062	47006.1	115
0	470690	47068.9	27
0	470958	47095.7	4
0	473066	47306.5	105
0	473664	47366.3	20
0	473936	47393.5	45
0	474572	47457.1	4
0	475066	47506.5	35
0	475552	47555.1	185
0	475762	47576.1	1
0	476302	47630.1	50
0	480166	48016.5	77
0	481716	48171.5	53
0	483660	48365.9	29
0	484466	48446.5	173
0	485434	48543.3	211
0	487272	48727.1	38
0	488312	48831.1	1
0	490342	49034.1	88
0	491380	49137.9	75
0	492706	49270.5	133
0	493896	49389.5	79
0	495286	49528.5	86
0	497828	49782.7	27
0	498534	49853.3	23
0	502344	50234.3	239
0	507952	50795.1	8
0	511770	51176.9	68
0	513698	51369.7	21
0	515526	51552.5	1
0	515892	51589.1	95
0	518152	51815.1	228
0	520822	52082.1	63
0	521232	52123.1	28
0	521246	52124.5	2
0	522876	52287.5	60
0	523536	52353.5	47
0	524036	52403.5	69
0	524204	52420.3	2
0	524556	52455.5	46
0	524696	52469.5	74
0	525354	52535.3	82
0	526252	52625.1	89
0	527224	52722.3	9
0	529240	52923.9	13
0	531330	53132.9	34
0	532252	53225.1	13
0	534932	53493.1	50
0	534970	53496.9	1
0	537482	53748.1	16
0	538320	53831.9	88
0	538610	53860.9	96
0	539688	53968.7	168
0	542130	54212.9	102
0	543900	54389.9	160
0	544138	54413.7	34
0	548594	54859.3	57
0	548808	54880.7	93
0	549058	54905.7	1
0	552988	55298.7	74
0	553788	55378.7	57
0	555506	55550.5	42
0	555546	55554.5	28
0	557188	55718.7	188
0	558296	55829.5	112
0	559682	55968.1	179
0	561118	56111.7	2
0	562464	56246.3	451
0	565316	56531.5	7
0	565790	56578.9	37
0	567312	56731.1	1
0	567436	56743.5	64
0	568448	56844.7	6
0	569684	56968.3	42
0	573668	57366.7	266
0	574036	57403.5	314
0	574076	57407.5	10
0	574930	57492.9	46
0	575108	57510.7	1
0	576440	57643.9	22
0	578602	57860.1	29
0	580084	58008.3	44
0	582060	58205.9	13
0	584454	58445.3	59
0	584564	58456.3	73
0	587732	58773.1	64
0	589458	58945.7	31
0	590046	59004.5	50
0	592448	59244.7	55
0	593480	59347.9	34
0	595142	59514.1	71
0	595686	59568.5	86
0	596216	59621.5	33
0	597076	59707.5	13
0	598046	59804.5	32
0	598448	59844.7	101
0	601306	60130.5	78
0	604124	60412.3	8
0	604590	60458.9	192
0	606598	60659.7	1
0	607748	60774.7	119
0	608882	60888.1	17
0	608884	60888.3	1
0	614796	61479.5	212
0	616484	61648.3	24
0	617492	61749.1	28
0	618308	61830.7	83
0	619018	61901.7	185
0	621364	62136.3	16
0	621492	62149.1	45
0	622066	62206.5	38
0	622194	62219.3	15
0	622380	62237.9	39
0	624434	62443.3	1
0	624620	62461.9	1
0	625436	62543.5	2
0	626026	62602.5	42
0	626618	62661.7	1
0	628254	62825.3	185
0	629022	62902.1	89
0	630952	63095.1	214
0	631054	63105.3	100
0	632824	63282.3	46
0	635070	63506.9	9
0	635110	63510.9	33
0	636046	63604.5	50
0	636176	63617.5	54
0	636700	63669.9	9
0	638976	63897.5	52
0	639216	63921.5	88
0	641304	64130.3	85
0	642358	64235.7	52
0	643092	64309.1	30
0	644134	64413.3	1
0	649590	64958.9	165
0	649890	64988.9	160
0	650480	65047.9	3
0	650690	65068.9	66
0	651178	65117.7	135
0	651696	65169.5	13
0	651770	65176.9	44
0	652076	65207.5	15
0	652404	65240.3	38
0	656402	65640.1	27
0	657466	65746.5	23
0	657782	65778.1	73
0	658222	65822.1	106
0	660962	66096.1	72
0	662876	66287.5	102
0	666022	66602.1	5
0	666498	66649.7	26
0	667176	66717.5	1
0	667336	66733.5	137
0	669584	66958.3	50
0	670038	67003.7	6
0	670806	67080.5	62
0	671014	67101.3	4
0	671774	67177.3	136
0	674632	67463.1	8
0	675836	67583.5	151
0	676414	67641.3	56
0	679182	67918.1	155
0	679578	67957.7	39
0	681036	68103.5	110
0	681314	68131.3	84
0	681960	68195.9	118
0	683278	68327.7	320
0	683858	68385.7	203
0	683924	68392.3	61
0	684442	68444.1	67
0	687038	68703.7	11
0	687404	68740.3	100
0	688050	68804.9	170
0	690360	69035.9	36
0	691806	69180.5	31
0	693120	69311.9	75
0	694764	69476.3	74
0	696602	69660.1	79
0	697220	69721.9	31
0	698776	69877.5	6
0	699436	69943.5	168
0	700526	70052.5	105
0	701520	70151.9	75
0	702580	70257.9	113
0	705698	70569.7	2
0	708202	70820.1	35
0	708916	70891.5	299
0	710022	71002.1	89
0	710378	71037.7	201
0	711268	71126.7	101
0	712080	71207.9	115
0	713684	71368.3	1
0	713754	71375.3	42
0	714422	71442.1	112
0	715664	71566.3	184
0	718216	71821.5	255
0	722132	72213.1	72
0	723000	72299.9	14
0	727736	72773.5	46
0	729714	72971.3	9
0	731312	73131.1	168
0	735928	73592.7	1
0	736080	73607.9	1
0	737046	73704.5	28
0	737336	73733.5	61
0	737514	73751.3	85
0	738022	73802.1	46
0	740746	74074.5	61
0	743788	74378.7	34
0	744844	74484.3	4
0	748418	74841.7	50
0	750484	75048.3	169
0	753272	75327.1	7
0	754366	75436.5	1
0	755796	75579.5	65
0	756756	75675.5	37
0	760184	76018.3	90
0	760756	76075.5	22
0	761326	76132.5	28
0	761458	76145.7	70
0	762418	76241.7	204
0	764822	76482.1	124
0	765962	76596.1	37
0	769176	76917.5	1
0	770816	77081.5	135
0	771652	77165.1	117
0	772098	77209.7	88
0	772646	77264.5	10
0	774738	77473.7	22
0	775150	77514.9	23
0	775418	77541.7	4
0	779760	77975.9	46
0	781034	78103.3	56
0	782548	78254.7	71
0	783162	78316.1	73
0	783764	78376.3	61
0	786916	78691.5	465
0	786944	78694.3	1
0	787550	78754.9	1
0	792344	79234.3	47
0	795248	79524.7	177
0	795610	79560.9	17
0	796478	79647.7	97
0	797962	79796.1	64
0	799466	79946.5	33
0	799962	79996.1	4
0	802030	80202.9	41
0	803368	80336.7	23
0	804240	80423.9	7
0	805552	80555.1	20
0	807490	80748.9	11
0	808710	80870.9	10
0	810986	81098.5	16
0	811626	81162.5	84
0	812588	81258.7	212
0	814834	81483.3	79
0	815452	81545.1	42
0	816662	81666.1	87
0	817384	81738.3	43
0	819186	81918.5	83
0	819462	81946.1	66
0	820372	82037.1	82
0	821558	82155.7	119
0	825816	82581.5	17
0	826888	82688.7	11
0	828196	82819.5	68
0	828302	82830.1	44
0	830976	83097.5	170
0	832288	83228.7	34
0	834574	83457.3	1
0	835238	83523.7	62
0	835730	83572.9	44
0	836196	83619.5	91
0	837322	83732.1	48
0	839556	83955.5	130
0	841744	84174.3	54
0	842806	84280.5	25
0	843608	84360.7	88
0	843844	84384.3	44
0	844556	84455.5	168
0	845118	84511.7	184
0	845536	84553.5	3
0	846600	84659.9	76
0	847282	84728.1	4
0	848384	84838.3	151
0	849530	84952.9	64
0	851724	85172.3	94
0	852606	85260.5	74
0	854828	85482.7	132
0	855014	85501.3	108
0	855178	85517.7	103
0	857990	85798.9	248
0	861716	86171.5	55
0	863262	86326.1	153
0	863518	86351.7	23
0	864042	86404.1	201
0	865220	86521.9	28
0	865930	86592.9	3
0	866682	86668.1	56
0	868148	86814.7	106
0	869660	86965.9	62
0	876078	87607.7	354
0	878382	87838.1	295
0	879984	87998.3	249
0	880524	88052.3	25
0	880934	88093.3	94
0	881284	88128.3	16
0	884724	88472.3	1
0	885728	88572.7	225
0	886178	88617.7	93
0	887654	88765.3	44
0	889484	88948.3	51
0	889670	88966.9	6
0	892138	89213.7	3
0	894130	89412.9	81
0	894576	89457.5	4
0	898288	89828.7	1
0	900440	90043.9	112
0	902268	90226.7	160
0	904560	90455.9	53
0	905902	90590.1	129
0	908380	90837.9	2
0	908952	90895.1	108
0	911736	91173.5	47
0	913184	91318.3	200
0	913904	91390.3	123
0	914672	91467.1	120
0	915020	91501.9	22
0	916948	91694.7	65
0	920032	92003.1	35
0	920256	92025.5	8
0	920620	92061.9	44
0	922754	92275.3	98
0	924112	92411.1	11
0	926252	92625.1	1
0	929884	92988.3	118
0	932434	93243.3	14
0	932764	93276.3	6
0	934382	93438.1	23
0	935546	93554.5	299
0	936194	93619.3	79
0	939208	93920.7	83
0	940948	94094.7	28
0	941038	94103.7	61
0	942326	94232.5	31
0	943406	94340.5	8
0	944084	94408.3	11
0	947154	94715.3	61
0	948546	94854.5	88
0	949908	94990.7	195
0	950690	95068.9	15
0	951076	95107.5	66
0	951856	95185.5	99
0	955652	95565.1	34
0	956434	95643.3	111
0	956506	95650.5	53
0	956730	95672.9	36
0	960574	96057.3	14
0	961036	96103.5	61
0	961574	96157.3	65
0	964660	96465.9	62
0	966646	96664.5	165
0	967210	96720.9	42
0	968988	96898.7	45
0	972084	97208.3	16
0	972140	97213.9	4
0	973332	97333.1	15
0	975010	97500.9	30
0	975446	97544.5	144
0	976578	97657.7	93
0	977136	97713.5	140
0	980212	98021.1	10
0	982368	98236.7	78
0	984798	98479.7	77
0	986420	98641.9	92
0	988612	98861.1	1
0	989686	98968.5	70
0	991466	99146.5	23
0	991980	99197.9	92
0	994152	99415.1	79
0	994748	99474.7	1
0	996040	99603.9	8
0	997842	99784.1	81
0	1000228	100022.7	121
0	1001298	100129.7	42
0	1002458	100245.7	13
0	1002674	100267.3	16
0	1002818	100281.7	9
0	1003734	100373.3	30
0	1006394	100639.3	106
0	1008668	100866.7	139
0	1008856	100885.5	171
0	1010220	101021.9	307
0	1012836	101283.5	14
0	1013302	101330.1	211
0	1013964	101396.3	25
0	1015278	101527.7	38
0	1016804	101680.3	68
0	1018146	101814.5	76
0	1019250	101924.9	59
0	1019956	101995.5	41
0	1020342	102034.1	93
0	1021580	102157.9	109
0	1023484	102348.3	179
0	1025892	102589.1	85
0	1027416	102741.5	39
0	1028148	102814.7	141
0	1028260	102825.9	77
0	1028732	102873.1	33
0	1029200	102919.9	3
0	1031204	103120.3	147
0	1033676	103367.5	12
0	1034978	103497.7	6
0	1036564	103656.3	1
0	1037802	103780.1	3
0	1039188	103918.7	4
0	1039890	103988.9	4
0	1041296	104129.5	55
0	1042176	104217.5	64
0	1043318	104331.7	292
0	1045000	104499.9	47
0	1049052	104905.1	163
0	1049296	104929.5	2
0	1050630	105062.9	32
0	1050766	105076.5	15
0	1053430	105342.9	13
0	1059896	105989.5	11
0	1062892	106289.1	119
0	1064958	106495.7	238
0	1065076	106507.5	20
0	1065520	106551.9	1
0	1067306	106730.5	3
0	1068300	106829.9	85
0	1069176	106917.5	204
0	1071720	107171.9	5
0	1072528	107252.7	72
0	1072938	107293.7	142
0	1075022	107502.1	185
0	1078124	107812.3	211
0	1078584	107858.3	3
0	1078924	107892.3	12
0	1079160	107915.9	26
0	1079748	107974.7	36
0	1082382	108238.1	1
0	1083514	108351.3	13
0	1084610	108460.9	5
0	1084760	108475.9	26
0	1084792	108479.1	25
0	1085118	108511.7	28
0	1087974	108797.3	43
0	1088858	108885.7	96
0	1092408	109240.7	1
0	1093896	109389.5	167
0	1095110	109510.9	110
0	1095590	109558.9	114
0	1096330	109632.9	38
0	1096564	109656.3	23
0	1097416	109741.5	80
0	1097804	109780.3	28
0	1097966	109796.5	44
0	1100082	110008.1	1
0	1102520	110251.9	119
0	1102718	110271.7	27
0	1106834	110683.3	5
0	1107544	110754.3	156
0	1110032	111003.1	8
0	1112104	111210.3	1
0	1116572	111657.1	48
0	1123712	112371.1	2
0	1123886	112388.5	101
0	1128816	112881.5	1
0	1129338	112933.7	79
0	1129486	112948.5	16
0	1129692	112969.1	3
0	1130094	113009.3	84
0	1130392	113039.1	85
0	1131384	113138.3	152
0	1131898	113189.7	9
0	1132336	113233.5	23
0	1134320	113431.9	33
0	1138180	113817.9	24
0	1139058	113905.7	113
0	1140030	114002.9	95
0	1141330	114132.9	104
0	1142152	114215.1	1
0	1143828	114382.7	74
0	1144318	114431.7	282
0	1144662	114466.1	77
0	1145744	114574.3	19
0	1151760	115175.9	62
0	1153332	115333.1	20
0	1154366	115436.5	62
0	1158460	115845.9	55
0	1161198	116119.7	16
0	1161532	116153.1	27
0	1161710	116170.9	118
0	1161928	116192.7	80
0	1165194	116519.3	67
0	1167662	116766.1	240
0	1167728	116772.7	34
0	1171000	117099.9	17
0	1171248	117124.7	63
0	1172308	117230.7	7
0	1176248	117624.7	96
0	1177434	117743.3	160
0	1178282	117828.1	90
0	1178624	117862.3	4
0	1179814	117981.3	170
0	1180850	118084.9	1
0	1181394	118139.3	1
0	1182366	118236.5	2
0	1184154	118415.3	72
0	1185190	118518.9	193
0	1188580	118857.9	272
0	1192722	119272.1	46
0	1193920	119391.9	27
0	1195796	119579.5	4
0	1197216	119721.5	11
0	1198804	119880.3	17
0	1199572	119957.1	212
0	1202488	120248.7	72
0	1203426	120342.5	24
0	1203852	120385.1	61
0	1205722	120572.1	105
0	1208614	120861.3	163
0	1208816	120881.5	165
0	1211218	121121.7	248
0	1213652	121365.1	114
0	1214276	121427.5	160
0	1216184	121618.3	182
0	1217590	121758.9	43
0	1223240	122323.9	55
0	1224574	122457.3	52
0	1228880	122887.9	159
0	1229400	122939.9	151
0	1234684	123468.3	42
0	1235790	123578.9	1
0	1238870	123886.9	177
0	1242194	124219.3	9
0	1245306	124530.5	145
0	1245644	124564.3	150
0	1246076	124607.5	407
0	1246794	124679.3	89
0	1249882	124988.1	21
0	1250322	125032.1	1
0	1250456	125045.5	109
0	1252622	125262.1	7
0	1256712	125671.1	19
0	1258496	125849.5	61
0	1258644	125864.3	10
0	1258698	125869.7	7
0	1259404	125940.3	47
0	1261732	126173.1	13
0	1262854	126285.3	144
0	1268654	126865.3	62
0	1268846	126884.5	154
0	1270744	127074.3	161
0	1271464	127146.3	21
0	1272020	127201.9	167
0	1272204	127220.3	153
0	1272646	127264.5	133
0	1273572	127357.1	139
0	1274222	127422.1	47
0	1274480	127447.9	93
0	1276064	127606.3	2
0	1282506	128250.5	55
0	1282554	128255.3	19
0	1284234	128423.3	91
0	1285034	128503.3	261
0	1286188	128618.7	13
0	1286634	128663.3	25
0	1287386	128738.5	4
0	1288064	128806.3	69
0	1288434	128843.3	114
0	1291248	129124.7	252
0	1293666	129366.5	210
0	1296436	129643.5	1
0	1297218	129721.7	231
0	1297526	129752.5	1
0	1298106	129810.5	64
0	1298506	129850.5	51
0	1298704	129870.3	82
0	1299052	129905.1	279
0	1301420	130141.9	48
0	1303096	130309.5	17
0	1303570	130356.9	1
0	1305682	130568.1	24
0	1307646	130764.5	4
0	1309774	130977.3	49
0	1310610	131060.9	206
0	1313036	131303.5	264
0	1313494	131349.3	48
0	1313708	131370.7	157
0	1316602	131660.1	387
0	1316680	131667.9	42
0	1317296	131729.5	188
0	1319650	131964.9	43
0	1320444	132044.3	1
0	1320904	132090.3	54
0	1321168	132116.7	35
0	1322788	132278.7	37
0	1327620	132761.9	6
0	1330582	133058.1	166
0	1332344	133234.3	20
0	1332646	133264.5	192
0	1334022	133402.1	4
0	1334782	133478.1	46
0	1335788	133578.7	101
0	1338192	133819.1	111
0	1338726	133872.5	31
0	1341000	134099.9	21
0	1341122	134112.1	44
0	1341454	134145.3	1
0	1342004	134200.3	152
0	1342550	134254.9	34
0	1343698	134369.7	9
0	1344310	134430.9	1
0	1347374	134737.3	28
0	1352212	135221.1	49
0	1352952	135295.1	18
0	1353708	135370.7	1
0	1355384	135538.3	36
0	1355652	135565.1	22
0	1358218	135821.7	1
0	1362036	136203.5	37
0	1363286	136328.5	252
0	1363476	136347.5	164
0	1364120	136411.9	147
0	1364546	136454.5	2
0	1365634	136563.3	12
0	1366132	136613.1	143
0	1368250	136824.9	128
0	1369024	136902.3	46
0	1370460	137045.9	332
0	1371974	137197.3	152
0	1374162	137416.1	72
0	1374444	137444.3	94
0	1374500	137449.9	29
0	1374598	137459.7	91
0	1375492	137549.1	24
0	1375712	137571.1	15
0	1376760	137675.9	79
0	1377038	137703.7	154
0	1378770	137876.9	154
0	1380768	138076.7	106
0	1381810	138180.9	86
0	1383010	138300.9	76
0	1383300	138329.9	115
0	1385856	138585.5	20
0	1388572	138857.1	98
0	1390716	139071.5	20
0	1391062	139106.1	57
0	1392834	139283.3	33
0	1393750	139374.9	2
0	1393890	139388.9	51
0	1393992	139399.1	4
0	1395634	139563.3	28
0	1398284	139828.3	314
0	1400824	140082.3	2
0	1402868	140286.7	86
0	1403134	140313.3	50
0	1403642	140364.1	203
0	1404686	140468.5	57
0	1404934	140493.3	1
0	1405356	140535.5	323
0	1405824	140582.3	3
0	1405966	140596.5	81
0	1407294	140729.3	28
0	1407522	140752.1	121
0	1408290	140828.9	170
0	1408446	140844.5	24
0	1410376	141037.5	75
0	1418970	141896.9	460
0	1419472	141947.1	18
0	1420174	142017.3	57
0	1420792	142079.1	91
0	1422764	142276.3	9
0	1423820	142381.9	39
0	1424036	142403.5	1
0	1424094	142409.3	6
0	1425396	142539.5	44
0	1425792	142579.1	19
0	1427528	142752.7	225
0	1428074	142807.3	25
0	1428360	142835.9	1
0	1429192	142919.1	43
0	1432292	143229.1	2
0	1435246	143524.5	109
0	1435796	143579.5	73
0	1438742	143874.1	222
0	1439108	143910.7	300
0	1440858	144085.7	235
0	1444182	144418.1	201
0	1444516	144451.5	26
0	1444852	144485.1	48
0	1446452	144645.1	29
0	1447374	144737.3	7
0	1449478	144947.7	69
0	1451684	145168.3	56
0	1451756	145175.5	14
0	1452140	145213.9	1
0	1452974	145297.3	54
0	1453284	145328.3	91
0	1454228	145422.7	13
0	1454870	145486.9	40
0	1455144	145514.3	26
0	1457500	145749.9	33
0	1462148	146214.7	102
0	1462308	146230.7	7
0	1463836	146383.5	6
0	1465586	146558.5	65
0	1467686	146768.5	10
0	1469202	146920.1	8
0	1469220	146921.9	5
0	1469876	146987.5	199
0	1473146	147314.5	7
0	1474194	147419.3	15
0	1474256	147425.5	14
0	1474400	147439.9	102
0	1474938	147493.7	176
0	1476834	147683.3	58
0	1477510	147750.9	211
0	1477832	147783.1	214
0	1477974	147797.3	43
0	1480390	148038.9	115
0	1482118	148211.7	352
0	1483720	148371.9	15
0	1483756	148375.5	4
0	1485918	148591.7	46
0	1487132	148713.1	28
0	1488060	148805.9	66
0	1490712	149071.1	46
0	1491020	149101.9	271
0	1492908	149290.7	210
0	1494576	149457.5	37
0	1495528	149552.7	121
0	1496382	149638.1	144
0	1496926	149692.5	238
0	1497150	149714.9	8
0	1497762	149776.1	85
0	1499232	149923.1	2
0	1499896	149989.5	506
0	1500534	150053.3	21
0	1500934	150093.3	197
0	1501006	150100.5	61
0	1501406	150140.5	12
0	1503060	150305.9	304
0	1504646	150464.5	35
0	1504888	150488.7	144
0	1505158	150515.7	57
0	1506922	150692.1	113
0	1508336	150833.5	7
0	1509818	150981.7	15
0	1509860	150985.9	26
0	1511428	151142.7	33
0	1512000	151199.9	12
0	1514150	151414.9	19
0	1514622	151462.1	34
0	1516452	151645.1	41
0	1520188	152018.7	2
0	1520264	152026.3	60
0	1522178	152217.7	19
0	1523090	152308.9	131
0	1523238	152323.7	18
0	1523498	152349.7	1
0	1524414	152441.3	21
0	1525958	152595.7	21
0	1529428	152942.7	1
0	1533196	153319.5	225
0	1535008	153500.7	400
0	1535106	153510.5	5
0	1535608	153560.7	148
0	1536846	153684.5	102
0	1539988	153998.7	6
0	1541470	154146.9	4
0	1542014	154201.3	21
0	1543402	154340.1	21
0	1543924	154392.3	115
0	1544940	154493.9	27
0	1546216	154621.5	277
0	1546788	154678.7	110
0	1547056	154705.5	212
0	1549306	154930.5	155
0	1549562	154956.1	78
0	1553364	155336.3	25
0	1559084	155908.3	50
0	1564292	156429.1	42
0	1564964	156496.3	71
0	1565274	156527.3	91
0	1566046	156604.5	75
0	1566300	156629.9	151
0	1568204	156820.3	11
0	1568422	156842.1	27
0	1569670	156966.9	332
0	1570680	157067.9	144
0	1570804	157080.3	41
0	1571410	157140.9	1
0	1572910	157290.9	109
0	1573504	157350.3	7
0	1573924	157392.3	11
0	1574072	157407.1	4
0	1574222	157422.1	2
0	1574416	157441.5	13
0	1577338	157733.7	3
0	1577934	157793.3	64
0	1583846	158384.5	38
0	1589614	158961.3	6
0	1589744	158974.3	91
0	1590150	159014.9	6
0	1590478	159047.7	4
0	1591180	159117.9	159
0	1593324	159332.3	23
0	1594416	159441.5	24
0	1594908	159490.7	51
0	1602262	160226.1	52
0	1605750	160574.9	27
0	1608406	160840.5	61
0	1608578	160857.7	99
0	1609294	160929.3	13
0	1610024	161002.3	21
0	1610974	161097.3	85
0	1612176	161217.5	99
0	1612178	161217.7	1
0	1612554	161255.3	1
0	1614022	161402.1	11
0	1615972	161597.1	1
0	1616728	161672.7	222
0	1620810	162080.9	61
0	1623130	162312.9	35
0	1627462	162746.1	49
0	1631316	163131.5	315
0	1633948	163394.7	1
0	1634168	163416.7	133
0	1638154	163815.3	167
0	1640824	164082.3	10
0	1641448	164144.7	77
0	1641622	164162.1	103
0	1642922	164292.1	4
0	1644938	164493.7	13
0	1645118	164511.7	25
0	1646846	164684.5	53
0	1648494	164849.3	11
0	1648802	164880.1	40
0	1655596	165559.5	32
0	1659824	165982.3	152
0	1660208	166020.7	36
0	1662974	166297.3	192
0	1666058	166605.7	687
0	1666178	166617.7	40
0	1668028	166802.7	53
0	1669372	166937.1	130
0	1671426	167142.5	61
0	1672798	167279.7	60
0	1674344	167434.3	77
0	1674916	167491.5	177
0	1675264	167526.3	107
0	1677950	167794.9	6
0	1678594	167859.3	86
0	1679328	167932.7	2
0	1679610	167960.9	157
0	1680914	168091.3	330
0	1681272	168127.1	1
0	1683770	168376.9	15
0	1684500	168449.9	253
0	1687030	168702.9	1
0	1687856	168785.5	174
0	1689968	168996.7	193
0	1689982	168998.1	8
0	1693720	169371.9	98
0	1696690	169668.9	143
0	1696986	169698.5	120
0	1697302	169730.1	17
0	1699630	169962.9	22
0	1700796	170079.5	21
0	1701098	170109.7	60
0	1702510	170250.9	160
0	1703484	170348.3	77
0	1703958	170395.7	120
0	1704312	170431.1	248
0	1704772	170477.1	30
0	1706218	170621.7	1
0	1708202	170820.1	114
0	1708780	170877.9	84
0	1709396	170939.5	29
0	1710942	171094.1	104
0	1711494	171149.3	33
0	1711868	171186.7	241
0	1712428	171242.7	24
0	1713218	171321.7	17
0	1716592	171659.1	4
0	1718026	171802.5	5
0	1718364	171836.3	83
0	1719104	171910.3	66
0	1720018	172001.7	99
0	1720616	172061.5	11
0	1721640	172163.9	54
0	1722500	172249.9	167
0	1723588	172358.7	7
0	1724724	172472.3	38
0	1724854	172485.3	41
0	1728440	172843.9	2
0	1729136	172913.5	10
0	1729502	172950.1	6
0	1730600	173059.9	173
0	1731250	173124.9	315
0	1731926	173192.5	47
0	1734158	173415.7	39
0	1735004	173500.3	41
0	1736356	173635.5	49
0	1736566	173656.5	2
0	1737390	173738.9	31
0	1739096	173909.5	117
0	1739168	173916.7	64
0	1740032	174003.1	25
0	1740530	174052.9	353
0	1741842	174184.1	46
0	1743308	174330.7	17
0	1744128	174412.7	233
0	1745238	174523.7	32