version 3
run General-120-20230611-05:41:40-416641
attr configname General
attr datetime 20230611-05:41:40
attr datetimef 20230611-054140
attr experiment General
attr inifile omnetpp.ini
attr iterationvars $N=94
attr iterationvarsd N=94
attr iterationvarsf N=94-
attr measurement $N=94
attr network LN
attr processid 416641
attr repetition 0
attr replication #0
attr resultdir results
attr runnumber 120
attr seedset 120
itervar N 94
config network LN
config sim-time-limit 250000s
config **.tic[*].hopCount.result-recording-modes +vector
config *.numCentralNodes 94
config repeat 4

vector 0 LN.lnd[8] hopCount:vector ETV
attr interpolationmode none
attr recordingmode vector
attr source arrival
attr title "hop count"
vector 1 LN.lnd[10] hopCount:vector ETV
attr interpolationmode none
attr recordingmode vector
attr source arrival
attr title "hop count"
vector 2 LN.lnd[2] hopCount:vector ETV
attr interpolationmode none
attr recordingmode vector
attr source arrival
attr title "hop count"
vector 3 LN.lnd[17] hopCount:vector ETV
attr interpolationmode none
attr recordingmode vector
attr source arrival
attr title "hop count"
vector 4 LN.lnd[4] hopCount:vector ETV
attr interpolationmode none
attr recordingmode vector
attr source arrival
attr title "hop count"
vector 5 LN.lnd[18] hopCount:vector ETV
attr interpolationmode none
attr recordingmode vector
attr source arrival
attr title "hop count"
vector 6 LN.lnd[6] hopCount:vector ETV
attr interpolationmode none
attr recordingmode vector
attr source arrival
attr title "hop count"
vector 7 LN.lnd[1] hopCount:vector ETV
attr interpolationmode none
attr recordingmode vector
attr source arrival
attr title "hop count"
vector 8 LN.lnd[12] hopCount:vector ETV
attr interpolationmode none
attr recordingmode vector
attr source arrival
attr title "hop count"
vector 9 LN.lnd[15] hopCount:vector ETV
attr interpolationmode none
attr recordingmode vector
attr source arrival
attr title "hop count"
vector 10 LN.lnd[13] hopCount:vector ETV
attr interpolationmode none
attr recordingmode vector
attr source arrival
attr title "hop count"
vector 11 LN.lnd[5] hopCount:vector ETV
attr interpolationmode none
attr recordingmode vector
attr source arrival
attr title "hop count"
vector 12 LN.lnd[7] hopCount:vector ETV
attr interpolationmode none
attr recordingmode vector
attr source arrival
attr title "hop count"
vector 13 LN.lnd[11] hopCount:vector ETV
attr interpolationmode none
attr recordingmode vector
attr source arrival
attr title "hop count"
vector 14 LN.lnd[14] hopCount:vector ETV
attr interpolationmode none
attr recordingmode vector
attr source arrival
attr title "hop count"
vector 15 LN.lnd[19] hopCount:vector ETV
attr interpolationmode none
attr recordingmode vector
attr source arrival
attr title "hop count"
vector 16 LN.lnd[9] hopCount:vector ETV
attr interpolationmode none
attr recordingmode vector
attr source arrival
attr title "hop count"
vector 17 LN.lnd[3] hopCount:vector ETV
attr interpolationmode none
attr recordingmode vector
attr source arrival
attr title "hop count"
vector 18 LN.lnd[16] hopCount:vector ETV
attr interpolationmode none
attr recordingmode vector
attr source arrival
attr title "hop count"
vector 19 LN.lnd[0] hopCount:vector ETV
attr interpolationmode none
attr recordingmode vector
attr source arrival
attr title "hop count"
0	16	1.5	15
0	1852	185.1	15
0	2144	214.3	2
0	3064	306.3	189
0	3186	318.5	25
0	3602	360.1	160
0	4850	484.9	59
0	5558	555.7	15
0	5724	572.3	34
0	5876	587.5	28
0	7698	769.7	108
0	10476	1047.5	20
0	11358	1135.7	86
0	11438	1143.7	59
0	11574	1157.3	28
0	12644	1264.3	111
0	15282	1528.1	89
0	20470	2046.9	34
0	21442	2144.1	17
0	23390	2338.9	94
0	25258	2525.7	128
0	25384	2538.3	57
0	25574	2557.3	5
0	25884	2588.3	42
0	26160	2615.9	3
0	26446	2644.5	135
0	26650	2664.9	38
0	26732	2673.1	31
0	27312	2731.1	9
0	33440	3343.9	60
0	33990	3398.9	61
0	34578	3457.7	36
0	36642	3664.1	26
0	37162	3716.1	1
0	38814	3881.3	234
0	40314	4031.3	127
0	42858	4285.7	43
0	43054	4305.3	38
0	45246	4524.5	333
0	49826	4982.5	106
0	51158	5115.7	75
0	52510	5250.9	9
0	52684	5268.3	127
0	52966	5296.5	69
0	55448	5544.7	16
0	55920	5591.9	40
0	57012	5701.1	11
0	61028	6102.7	295
0	61430	6142.9	3
0	63426	6342.5	86
0	63906	6390.5	30
0	67278	6727.7	58
0	70268	7026.7	151
0	72192	7219.1	197
0	74568	7456.7	81
0	74830	7482.9	2
0	80716	8071.5	32
0	81236	8123.5	198
0	81502	8150.1	38
0	84820	8481.9	278
0	84916	8491.5	5
0	85386	8538.5	3
0	85882	8588.1	5
0	86284	8628.3	107
0	87408	8740.7	156
0	89168	8916.7	10
0	92648	9264.7	10
0	92876	9287.5	40
0	93788	9378.7	29
0	94104	9410.3	23
0	94954	9495.3	139
0	95470	9546.9	121
0	98154	9815.3	105
0	98968	9896.7	21
0	104160	10415.9	138
0	105004	10500.3	373
0	106012	10601.1	53
0	110024	11002.3	11
0	111654	11165.3	40
0	113078	11307.7	123
0	114000	11399.9	162
0	116224	11622.3	201
0	116504	11650.3	14
0	117540	11753.9	169
0	119160	11915.9	108
0	119888	11988.7	13
0	122544	12254.3	11
0	122546	12254.5	1
0	124622	12462.1	79
0	126488	12648.7	14
0	126574	12657.3	28
0	128452	12845.1	106
0	129136	12913.5	49
0	130410	13040.9	1
0	131322	13132.1	351
0	131722	13172.1	21
0	133568	13356.7	8
0	134582	13458.1	63
0	134724	13472.3	75
0	136210	13620.9	172
0	136940	13693.9	137
0	136992	13699.1	26
0	139504	13950.3	23
0	141270	14126.9	99
0	141838	14183.7	8
0	147272	14727.1	132
0	148200	14819.9	65
0	148508	14850.7	75
0	149064	14906.3	107
0	149692	14969.1	4
0	149934	14993.3	186
0	151710	15170.9	19
0	152336	15233.5	20
0	153036	15303.5	118
0	153654	15365.3	40
0	154978	15497.7	5
0	156400	15639.9	91
0	159436	15943.5	24
0	159614	15961.3	44
0	160902	16090.1	698
0	163568	16356.7	10
0	165352	16535.1	15
0	166254	16625.3	27
0	166942	16694.1	53
0	168228	16822.7	205
0	168414	16841.3	1
0	169322	16932.1	49
0	169744	16974.3	144
0	172026	17202.5	128
0	172320	17231.9	87
0	172490	17248.9	5
0	173376	17337.5	17
0	175040	17503.9	15
0	175540	17553.9	154
0	176752	17675.1	138
0	177020	17701.9	22
0	178552	17855.1	194
0	180230	18022.9	239
0	183612	18361.1	36
0	184704	18470.3	106
0	186540	18653.9	7
0	187380	18737.9	5
0	188462	18846.1	15
0	188898	18889.7	44
0	189344	18934.3	56
0	191628	19162.7	10
0	192100	19209.9	11
0	192526	19252.5	12
0	193302	19330.1	30
0	193864	19386.3	61
0	196008	19600.7	92
0	196248	19624.7	5
0	199232	19923.1	15
0	201202	20120.1	408
0	204100	20409.9	45
0	204576	20457.5	35
0	207362	20736.1	10
0	208420	20841.9	10
0	209328	20932.7	95
0	212232	21223.1	231
0	213096	21309.5	85
0	213506	21350.5	43
0	213754	21375.3	162
0	214320	21431.9	64
0	215582	21558.1	2
0	217254	21725.3	147
0	217376	21737.5	33
0	217594	21759.3	184
0	218764	21876.3	241
0	220910	22090.9	225
0	221368	22136.7	96
0	221984	22198.3	23
0	222616	22261.5	2
0	223966	22396.5	153
0	226184	22618.3	105
0	230958	23095.7	76
0	231462	23146.1	203
0	232064	23206.3	31
0	232826	23282.5	66
0	234590	23458.9	3
0	236264	23626.3	70
0	237258	23725.7	27
0	237376	23737.5	101
0	238886	23888.5	18
0	239644	23964.3	13
0	240042	24004.1	100
0	243044	24304.3	209
0	244156	24415.5	30
0	247022	24702.1	32
0	249914	24991.3	238
0	251312	25131.1	360
0	251576	25157.5	161
0	251698	25169.7	46
0	255076	25507.5	6
0	258610	25860.9	117
0	260490	26048.9	101
0	261132	26113.1	26
0	263958	26395.7	75
0	264258	26425.7	21
0	265236	26523.5	45
0	267422	26742.1	201
0	267680	26767.9	20
0	272124	27212.3	23
0	273616	27361.5	41
0	273728	27372.7	42
0	274604	27460.3	18
0	276126	27612.5	57
0	276432	27643.1	94
0	276862	27686.1	57
0	278898	27889.7	12
0	279824	27982.3	15
0	279876	27987.5	41
0	279978	27997.7	101
0	280694	28069.3	237
0	283174	28317.3	117
0	284910	28490.9	29
0	285410	28540.9	5
0	285790	28578.9	34
0	285982	28598.1	87
0	286750	28674.9	35
0	287550	28754.9	316
0	291828	29182.7	83
0	293176	29317.5	42
0	293998	29399.7	37
0	294718	29471.7	3
0	295126	29512.5	73
0	295682	29568.1	19
0	300928	30092.7	33
0	304750	30474.9	135
0	309422	30942.1	25
0	311150	31114.9	56
0	312700	31269.9	6
0	314264	31426.3	90
0	318252	31825.1	215
0	319040	31903.9	16
0	321044	32104.3	133
0	321604	32160.3	11
0	323488	32348.7	2
0	323912	32391.1	89
0	326140	32613.9	38
0	327682	32768.1	201
0	332346	33234.5	43
0	333002	33300.1	30
0	334032	33403.1	199
0	334614	33461.3	99
0	334736	33473.5	121
0	336572	33657.1	2
0	336978	33697.7	68
0	338022	33802.1	198
0	338960	33895.9	46
0	341508	34150.7	41
0	341700	34169.9	4
0	344318	34431.7	24
0	344960	34495.9	53
0	344976	34497.5	6
0	346152	34615.1	64
0	350062	35006.1	8
0	350254	35025.3	120
0	350776	35077.5	63
0	350928	35092.7	30
0	352522	35252.1	197
0	353786	35378.5	308
0	354782	35478.1	23
0	355224	35522.3	10
0	357412	35741.1	2
0	359868	35986.7	45
0	360510	36050.9	59
0	361368	36136.7	50
0	362426	36242.5	47
0	365440	36543.9	73
0	365678	36567.7	17
0	366016	36601.5	43
0	366576	36657.5	214
0	369956	36995.5	49
0	371578	37157.7	55
0	373210	37320.9	56
0	373862	37386.1	94
0	373930	37392.9	60
0	374722	37472.1	164
0	375130	37512.9	8
0	375312	37531.1	83
0	376774	37677.3	17
0	377990	37798.9	8
0	378476	37847.5	301
0	379070	37906.9	15
0	380938	38093.7	13
0	382532	38253.1	29
0	384192	38419.1	314
0	390594	39059.3	67
0	390716	39071.5	61
0	391690	39168.9	30
0	392444	39244.3	39
0	393752	39375.1	40
0	394026	39402.5	195
0	395176	39517.5	9
0	395392	39539.1	152
0	395490	39548.9	74
0	396736	39673.5	245
0	397136	39713.5	121
0	398122	39812.1	41
0	398192	39819.1	29
0	398950	39894.9	8
0	399882	39988.1	130
0	400372	40037.1	103
0	400504	40050.3	23
0	402966	40296.5	36
0	403356	40335.5	219
0	407982	40798.1	284
0	409658	40965.7	122
0	413220	41321.9	56
0	413984	41398.3	82
0	415566	41556.5	61
0	417132	41713.1	43
0	418168	41816.7	30
0	418746	41874.5	69
0	419974	41997.3	187
0	421482	42148.1	7
0	422208	42220.7	216
0	422634	42263.3	107
0	425890	42588.9	15
0	426864	42686.3	2
0	427594	42759.3	17
0	428558	42855.7	168
0	428986	42898.5	18
0	429600	42959.9	2
0	433596	43359.5	137
0	434810	43480.9	6
0	435354	43535.3	3
0	435500	43549.9	50
0	435994	43599.3	162
0	438668	43866.7	62
0	439664	43966.3	169
0	442028	44202.7	122
0	444674	44467.3	202
0	446584	44658.3	129
0	447310	44730.9	42
0	448354	44835.3	37
0	448984	44898.3	202
0	449308	44930.7	45
0	450494	45049.3	18
0	451448	45144.7	172
0	453616	45361.5	232
0	457934	45793.3	49
0	458536	45853.5	352
0	459156	45915.5	1
0	460974	46097.3	99
0	462642	46264.1	3
0	463636	46363.5	4
0	466978	46697.7	62
0	467642	46764.1	41
0	467952	46795.1	18
0	469080	46907.9	138
0	471126	47112.5	93
0	473018	47301.7	67
0	473436	47343.5	45
0	478904	47890.3	2
0	479510	47950.9	30
0	480032	48003.1	512
0	485290	48528.9	11
0	486006	48600.5	115
0	490364	49036.3	112
0	495378	49537.7	23
0	496434	49643.3	24
0	498712	49871.1	13
0	499592	49959.1	128
0	502720	50271.9	17
0	503608	50360.7	291
0	505628	50562.7	51
0	507840	50783.9	71
0	510068	51006.7	87
0	511814	51181.3	4
0	512274	51227.3	87
0	516404	51640.3	110
0	517990	51798.9	525
0	518800	51879.9	5
0	519182	51918.1	67
0	520032	52003.1	72
0	521730	52172.9	127
0	524346	52434.5	120
0	525742	52574.1	148
0	526510	52650.9	9
0	531074	53107.3	23
0	532532	53253.1	5
0	532946	53294.5	21
0	535048	53504.7	1
0	539434	53943.3	7
0	540074	54007.3	56
0	540524	54052.3	99
0	541050	54104.9	1
0	541784	54178.3	400
0	542138	54213.7	102
0	543302	54330.1	138
0	543482	54348.1	36
0	545236	54523.5	31
0	546522	54652.1	31
0	551800	55179.9	2
0	554368	55436.7	316
0	557530	55752.9	80
0	559006	55900.5	77
0	560392	56039.1	105
0	560402	56040.1	9
0	562674	56267.3	103
0	563280	56327.9	3
0	565554	56555.3	79
0	566688	56668.7	41
0	569788	56978.7	165
0	570098	57009.7	183
0	574128	57412.7	62
0	575872	57587.1	6
0	576140	57613.9	115
0	576194	57619.3	24
0	576442	57644.1	3
0	577302	57730.1	4
0	577702	57770.1	39
0	577902	57790.1	56
0	581924	58192.3	11
0	582250	58224.9	9
0	583104	58310.3	1
0	583318	58331.7	2
0	583698	58369.7	146
0	585294	58529.3	18
0	586668	58666.7	56
0	588392	58839.1	43
0	588562	58856.1	58
0	589534	58953.3	39
0	590138	59013.7	63
0	591098	59109.7	82
0	591378	59137.7	4
0	591876	59187.5	15
0	595168	59516.7	55
0	595888	59588.7	132
0	598704	59870.3	136
0	599202	59920.1	6
0	600056	60005.5	20
0	600456	60045.5	47
0	602152	60215.1	280
0	604206	60420.5	31
0	604628	60462.7	161
0	605252	60525.1	232
0	605566	60556.5	2
0	606312	60631.1	79
0	608378	60837.7	5
0	608554	60855.3	22
0	608684	60868.3	105
0	610292	61029.1	149
0	610424	61042.3	32
0	612952	61295.1	193
0	614320	61431.9	191
0	616946	61694.5	101
0	619422	61942.1	17
0	622512	62251.1	73
0	622546	62254.5	17
0	622670	62266.9	9
0	623230	62322.9	21
0	624372	62437.1	85
0	626350	62634.9	48
0	626582	62658.1	28
0	627320	62731.9	217
0	628284	62828.3	56
0	628322	62832.1	8
0	632156	63215.5	343
0	633542	63354.1	129
0	637338	63733.7	233
0	637466	63746.5	90
0	638112	63811.1	391
0	638444	63844.3	23
0	638524	63852.3	69
0	638704	63870.3	176
0	641994	64199.3	112
0	642832	64283.1	42
0	644028	64402.7	380
0	645438	64543.7	21
0	646100	64609.9	108
0	646806	64680.5	13
0	647706	64770.5	285
0	647870	64786.9	62
0	648722	64872.1	101
0	649072	64907.1	95
0	649836	64983.5	53
0	651134	65113.3	24
0	651500	65149.9	35
0	651744	65174.3	17
0	652700	65269.9	52
0	652722	65272.1	17
0	655840	65583.9	25
0	656614	65661.3	66
0	658826	65882.5	69
0	661088	66108.7	42
0	661942	66194.1	77
0	664300	66429.9	302
0	667336	66733.5	81
0	667860	66785.9	48
0	668508	66850.7	96
0	670038	67003.7	68
0	670852	67085.1	48
0	672802	67280.1	20
0	672968	67296.7	127
0	673054	67305.3	27
0	673154	67315.3	46
0	677266	67726.5	81
0	677896	67789.5	18
0	678300	67829.9	116
0	678318	67831.7	10
0	678542	67854.1	57
0	679294	67929.3	12
0	682030	68202.9	27
0	682898	68289.7	27
0	684866	68486.5	44
0	685704	68570.3	159
0	686126	68612.5	12
0	686692	68669.1	135
0	690354	69035.3	52
0	691232	69123.1	18
0	692110	69210.9	3
0	692448	69244.7	36
0	692500	69249.9	27
0	693784	69378.3	50
0	694784	69478.3	56
0	696924	69692.3	10
0	700168	70016.7	148
0	700446	70044.5	37
0	701106	70110.5	481
0	701208	70120.7	27
0	702278	70227.7	39
0	703372	70337.1	270
0	704532	70453.1	64
0	705742	70574.1	190
0	706322	70632.1	241
0	707514	70751.3	13
0	709862	70986.1	377
0	712108	71210.7	9
0	714726	71472.5	424
0	716204	71620.3	235
0	718540	71853.9	45
0	719428	71942.7	33
0	719864	71986.3	10
0	722078	72207.7	27
0	722428	72242.7	109
0	723092	72309.1	40
0	723260	72325.9	71
0	726204	72620.3	20
0	726336	72633.5	99
0	729526	72952.5	13
0	729668	72966.7	3
0	731710	73170.9	3
0	738502	73850.1	26
0	741240	74123.9	112
0	746228	74622.7	12
0	747274	74727.3	33
0	747686	74768.5	28
0	747872	74787.1	2
0	752924	75292.3	48
0	753298	75329.7	17
0	755318	75531.7	110
0	759040	75903.9	31
0	759590	75958.9	67
0	764342	76434.1	165
0	765510	76550.9	30
0	768908	76890.7	31
0	772412	77241.1	100
0	772502	77250.1	48
0	772814	77281.3	224
0	772826	77282.5	6
0	775780	77577.9	53
0	776120	77611.9	20
0	776516	77651.5	10
0	779584	77958.3	122
0	782800	78279.9	17
0	785228	78522.7	76
0	785822	78582.1	69
0	786434	78643.3	117
0	787142	78714.1	93
0	788168	78816.7	8
0	788754	78875.3	5
0	789028	78902.7	223
0	790568	79056.7	27
0	791354	79135.3	49
0	791362	79136.1	3
0	793588	79358.7	5
0	794712	79471.1	61
0	795080	79507.9	2
0	795532	79553.1	117
0	797298	79729.7	49
0	798596	79859.5	1
0	799654	79965.3	31
0	803072	80307.1	22
0	803798	80379.7	96
0	804436	80443.5	10
0	807054	80705.3	148
0	807238	80723.7	15
0	808272	80827.1	5
0	810554	81055.3	284
0	811026	81102.5	85
0	811382	81138.1	36
0	811772	81177.1	98
0	812434	81243.3	100
0	813112	81311.1	37
0	816284	81628.3	43
0	818472	81847.1	267
0	821540	82153.9	13
0	821592	82159.1	24
0	823032	82303.1	12
0	825310	82530.9	62
0	826566	82656.5	141
0	828488	82848.7	1
0	831656	83165.5	117
0	832510	83250.9	23
0	832980	83297.9	145
0	833480	83347.9	25
0	835294	83529.3	51
0	836232	83623.1	10
0	836636	83663.5	269
0	836666	83666.5	17
0	838418	83841.7	4
0	840362	84036.1	7
0	840612	84061.1	62
0	841388	84138.7	85
0	842320	84231.9	5
0	843482	84348.1	257
0	843882	84388.1	42
0	844376	84437.5	29
0	845678	84567.7	9
0	846788	84678.7	261
0	847982	84798.1	2
0	848294	84829.3	73
0	848986	84898.5	24
0	849810	84980.9	45
0	850296	85029.5	78
0	850916	85091.5	138
0	851162	85116.1	11
0	851486	85148.5	22
0	854882	85488.1	71
0	855854	85585.3	212
0	857902	85790.1	2
0	858242	85824.1	89
0	858584	85858.3	6
0	858802	85880.1	206
0	861824	86182.3	74
0	862572	86257.1	274
0	863160	86315.9	166
0	863496	86349.5	23
0	865214	86521.3	83
0	866912	86691.1	70
0	867342	86734.1	30
0	868692	86869.1	56
0	870502	87050.1	96
0	870896	87089.5	56
0	871192	87119.1	19
0	872970	87296.9	46
0	873074	87307.3	68
0	874008	87400.7	72
0	874220	87421.9	166
0	875502	87550.1	1
0	877408	87740.7	93
0	878916	87891.5	366
0	881280	88127.9	117
0	881996	88199.5	99
0	882282	88228.1	80
0	882680	88267.9	94
0	884006	88400.5	4
0	884904	88490.3	20
0	886408	88640.7	72
0	887338	88733.7	2
0	888266	88826.5	117
0	891084	89108.3	17
0	891516	89151.5	30
0	892886	89288.5	7
0	893364	89336.3	206
0	894812	89481.1	36
0	896526	89652.5	2
0	899552	89955.1	9
0	899808	89980.7	172
0	900208	90020.7	92
0	900492	90049.1	183
0	902354	90235.3	45
0	902840	90283.9	3
0	905554	90555.3	187
0	908994	90899.3	3
0	909416	90941.5	160
0	909570	90956.9	86
0	912254	91225.3	22
0	916434	91643.3	19
0	916652	91665.1	31
0	916834	91683.3	12
0	918202	91820.1	154
0	918920	91891.9	7
0	919522	91952.1	305
0	920076	92007.5	10
0	920282	92028.1	17
0	920440	92043.9	16
0	920764	92076.3	117
0	923434	92343.3	13
0	925242	92524.1	8
0	927242	92724.1	27
0	928550	92854.9	33
0	929358	92935.7	137
0	931142	93114.1	44
0	931896	93189.5	21
0	935254	93525.3	65
0	935544	93554.3	140
0	936284	93628.3	129
0	936802	93680.1	49
0	938270	93826.9	25
0	940094	94009.3	50
0	942322	94232.1	3
0	943190	94318.9	2
0	943760	94375.9	23
0	944384	94438.3	86
0	944746	94474.5	38
0	944868	94486.7	7
0	945244	94524.3	13
0	947694	94769.3	9
0	948106	94810.5	169
0	949162	94916.1	13
0	951416	95141.5	95
0	952086	95208.5	8
0	952440	95243.9	13
0	956128	95612.7	333
0	956222	95622.1	35
0	958682	95868.1	17
0	958972	95897.1	39
0	959608	95960.7	13
0	960570	96056.9	59
0	961464	96146.3	30
0	962632	96263.1	69
0	963112	96311.1	129
0	967254	96725.3	216
0	968032	96803.1	61
0	968282	96828.1	135
0	971544	97154.3	92
0	971876	97187.5	76
0	972520	97251.9	152
0	974442	97444.1	49
0	976952	97695.1	4
0	980422	98042.1	16
0	986228	98622.7	17
0	986800	98679.9	16
0	990148	99014.7	228
0	991196	99119.5	96
0	991488	99148.7	2
0	992204	99220.3	187
0	992782	99278.1	6
0	993022	99302.1	168
0	994776	99477.5	88
0	995906	99590.5	14
0	996376	99637.5	177
0	1000762	100076.1	6
0	1001574	100157.3	111
0	1002758	100275.7	32
0	1004456	100445.5	9
0	1007600	100759.9	446
0	1010518	101051.7	83
0	1012722	101272.1	39
0	1013320	101331.9	89
0	1013922	101392.1	79
0	1016076	101607.5	5
0	1016356	101635.5	158
0	1019006	101900.5	14
0	1020668	102066.7	32
0	1021252	102125.1	102
0	1022748	102274.7	60
0	1023656	102365.5	20
0	1027866	102786.5	21
0	1031164	103116.3	71
0	1033536	103353.5	175
0	1033930	103392.9	5
0	1034910	103490.9	70
0	1036998	103699.7	5
0	1037822	103782.1	9
0	1037868	103786.7	22
0	1039340	103933.9	10
0	1040966	104096.5	198
0	1041296	104129.5	147
0	1041640	104163.9	168
0	1042138	104213.7	15
0	1047186	104718.5	23
0	1047592	104759.1	66
0	1053096	105309.5	9
0	1054882	105488.1	52
0	1058260	105825.9	83
0	1060560	106055.9	26
0	1061544	106154.3	182
0	1062540	106253.9	90
0	1064366	106436.5	2
0	1067598	106759.7	186
0	1068308	106830.7	146
0	1068730	106872.9	21
0	1069454	106945.3	35
0	1071642	107164.1	26
0	1074990	107498.9	143
0	1077668	107766.7	231
0	1077934	107793.3	82
0	1079106	107910.5	19
0	1080228	108022.7	19
0	1081650	108164.9	6
0	1081764	108176.3	100
0	1082202	108220.1	55
0	1085826	108582.5	31
0	1086392	108639.1	2
0	1087770	108776.9	312
0	1088550	108854.9	386
0	1089070	108906.9	41
0	1089190	108918.9	18
0	1091102	109110.1	253
0	1092086	109208.5	74
0	1092190	109218.9	65
0	1092672	109267.1	88
0	1103016	110301.5	171
0	1103236	110323.5	50
0	1104496	110449.5	64
0	1104828	110482.7	20
0	1108616	110861.5	37
0	1108994	110899.3	53
0	1109202	110920.1	4
0	1112248	111224.7	65
0	1113930	111392.9	1
0	1118516	111851.5	101
0	1118992	111899.1	320
0	1119642	111964.1	114
0	1120816	112081.5	81
0	1121512	112151.1	25
0	1123900	112389.9	436
0	1124414	112441.3	40
0	1124852	112485.1	79
0	1125052	112505.1	5
0	1125212	112521.1	19
0	1125638	112563.7	351
0	1126094	112609.3	128
0	1126276	112627.5	104
0	1126480	112647.9	155
0	1126882	112688.1	290
0	1129382	112938.1	132
0	1129774	112977.3	8
0	1130636	113063.5	19
0	1132204	113220.3	36
0	1132572	113257.1	118
0	1133006	113300.5	150
0	1134914	113491.3	196
0	1135716	113571.5	31
0	1137532	113753.1	26
0	1137712	113771.1	72
0	1138632	113863.1	139
0	1139926	113992.5	130
0	1145284	114528.3	6
0	1145724	114572.3	10
0	1146872	114687.1	195
0	1150914	115091.3	16
0	1152738	115273.7	264
0	1153264	115326.3	80
0	1158766	115876.5	102
0	1159382	115938.1	35
0	1159914	115991.3	39
0	1162134	116213.3	69
0	1162540	116253.9	23
0	1163268	116326.7	218
0	1164528	116452.7	10
0	1166886	116688.5	65
0	1167538	116753.7	225
0	1168220	116821.9	51
0	1170456	117045.5	124
0	1170930	117092.9	19
0	1172964	117296.3	13
0	1174060	117405.9	144
0	1174520	117451.9	172
0	1175002	117500.1	13
0	1175902	117590.1	91
0	1176310	117630.9	69
0	1181190	118118.9	2
0	1181580	118157.9	9
0	1182450	118244.9	137
0	1183996	118399.5	25
0	1185432	118543.1	136
0	1186896	118689.5	5
0	1188302	118830.1	57
0	1190190	119018.9	84
0	1191972	119197.1	26
0	1193656	119365.5	80
0	1194326	119432.5	6
0	1195492	119549.1	23
0	1196092	119609.1	226
0	1200450	120044.9	39
0	1202742	120274.1	12
0	1203082	120308.1	3
0	1206144	120614.3	185
0	1207660	120765.9	235
0	1210138	121013.7	19
0	1210398	121039.7	69
0	1210980	121097.9	142
0	1211976	121197.5	204
0	1212070	121206.9	9
0	1213422	121342.1	17
0	1214464	121446.3	27
0	1214624	121462.3	74
0	1215714	121571.3	140
0	1216674	121667.3	52
0	1221674	122167.3	122
0	1222054	122205.3	13
0	1222298	122229.7	139
0	1222432	122243.1	124
0	1223904	122390.3	2
0	1225990	122598.9	152
0	1226780	122677.9	19
0	1228224	122822.3	38
0	1229664	122966.3	86
0	1230468	123046.7	32
0	1233106	123310.5	68
0	1234014	123401.3	70
0	1234930	123492.9	41
0	1235142	123514.1	46
0	1235708	123570.7	47
0	1237714	123771.3	5
0	1241322	124132.1	223
0	1242374	124237.3	99
0	1243570	124356.9	20
0	1245876	124587.5	31
0	1246234	124623.3	4
0	1246478	124647.7	58
0	1246922	124692.1	43
0	1248050	124804.9	74
0	1252900	125289.9	43
0	1254170	125416.9	59
0	1254200	125419.9	7
0	1258318	125831.7	159
0	1260228	126022.7	57
0	1261092	126109.1	228
0	1262346	126234.5	22
0	1262438	126243.7	11
0	1262460	126245.9	6
0	1264182	126418.1	2
0	1265442	126544.1	42
0	1268798	126879.7	284
0	1271746	127174.5	33
0	1275774	127577.3	1
0	1276072	127607.1	48
0	1277452	127745.1	143
0	1278164	127816.3	93
0	1278910	127890.9	39
0	1279152	127915.1	75
0	1279922	127992.1	3
0	1280514	128051.3	92
0	1281446	128144.5	142
0	1286346	128634.5	78
0	1287070	128706.9	72
0	1287540	128753.9	95
0	1288136	128813.5	335
0	1288566	128856.5	66
0	1289360	128935.9	137
0	1290708	129070.7	27
0	1293488	129348.7	48
0	1295560	129555.9	22
0	1300986	130098.5	41
0	1303502	130350.1	63
0	1303772	130377.1	107
0	1306102	130610.1	98
0	1306342	130634.1	128
0	1308678	130867.7	47
0	1309284	130928.3	139
0	1309436	130943.5	55
0	1310452	131045.1	210
0	1318544	131854.3	98
0	1318690	131868.9	12
0	1319672	131967.1	71
0	1322276	132227.5	225
0	1323902	132390.1	18
0	1324472	132447.1	78
0	1327608	132760.7	56
0	1328366	132836.5	8
0	1331118	133111.7	8
0	1331396	133139.5	149
0	1337508	133750.7	75
0	1339768	133976.7	42
0	1340118	134011.7	17
0	1341000	134099.9	425
0	1342500	134249.9	101
0	1344424	134442.3	24
0	1347406	134740.5	42
0	1347628	134762.7	64
0	1349292	134929.1	168
0	1351160	135115.9	22
0	1351372	135137.1	34
0	1351898	135189.7	130
0	1352828	135282.7	84
0	1353002	135300.1	59
0	1353706	135370.5	96
0	1355166	135516.5	302
0	1355378	135537.7	15
0	1355906	135590.5	56
0	1357074	135707.3	5
0	1358286	135828.5	212
0	1359106	135910.5	68
0	1359950	135994.9	32
0	1359956	135995.5	5
0	1360264	136026.3	35
0	1363688	136368.7	24
0	1364202	136420.1	81
0	1365334	136533.3	179
0	1365616	136561.5	58
0	1371982	137198.1	32
0	1373304	137330.3	143
0	1376690	137668.9	87
0	1378134	137813.3	26
0	1379966	137996.5	396
0	1380082	138008.1	54
0	1382628	138262.7	148
0	1382632	138263.1	3
0	1384614	138461.3	17
0	1388100	138809.9	21
0	1390216	139021.5	57
0	1391102	139110.1	35
0	1392234	139223.3	73
0	1392406	139240.5	34
0	1393572	139357.1	13
0	1394580	139457.9	135
0	1395300	139529.9	48
0	1397194	139719.3	83
0	1399034	139903.3	3
0	1402200	140219.9	190
0	1402594	140259.3	83
0	1402632	140263.1	1
0	1403446	140344.5	37
0	1404722	140472.1	18
0	1405342	140534.1	237
0	1405452	140545.1	103
0	1405728	140572.7	21
0	1406336	140633.5	241
0	1406436	140643.5	2
0	1407232	140723.1	79
0	1407900	140789.9	51
0	1409148	140914.7	27
0	1410680	141067.9	366
0	1412114	141211.3	5
0	1413556	141355.5	73
0	1416268	141626.7	27
0	1417676	141767.5	122
0	1417686	141768.5	9
0	1418754	141875.3	301
0	1419010	141900.9	61
0	1421662	142166.1	19
0	1422188	142218.7	100
0	1422594	142259.3	31
0	1424846	142484.5	142
0	1427354	142735.3	42
0	1428146	142814.5	41
0	1428938	142893.7	17
0	1430510	143050.9	308
0	1430816	143081.5	33
0	1431108	143110.7	40
0	1431766	143176.5	123
0	1432132	143213.1	1
0	1432302	143230.1	11
0	1432448	143244.7	61
0	1432618	143261.7	37
0	1434178	143417.7	11
0	1434584	143458.3	73
0	1435202	143520.1	27
0	1435458	143545.7	23
0	1439850	143984.9	10
0	1443768	144376.7	87
0	1449686	144968.5	64
0	1449862	144986.1	13
0	1450690	145068.9	59
0	1453766	145376.5	230
0	1454274	145427.3	201
0	1454732	145473.1	79
0	1456732	145673.1	289
0	1459836	145983.5	6
0	1462974	146297.3	249
0	1464392	146439.1	159
0	1464860	146485.9	29
0	1466010	146600.9	235
0	1466108	146610.7	76
0	1466816	146681.5	78
0	1469258	146925.7	52
0	1470252	147025.1	160
0	1470362	147036.1	99
0	1472462	147246.1	129
0	1472896	147289.5	131
0	1475464	147546.3	12
0	1476512	147651.1	65
0	1476858	147685.7	35
0	1477982	147798.1	85
0	1477990	147798.9	2
0	1478358	147835.7	96
0	1479722	147972.1	48
0	1480376	148037.5	12
0	1484400	148439.9	19
0	1484702	148470.1	175
0	1485270	148526.9	97
0	1485504	148550.3	79
0	1485582	148558.1	29
0	1486194	148619.3	10
0	1488232	148823.1	80
0	1489350	148934.9	22
0	1491280	149127.9	3
0	1492396	149239.5	26
0	1492464	149246.3	57
0	1494606	149460.5	11
0	1495386	149538.5	31
0	1496674	149667.3	290
0	1497394	149739.3	155
0	1498404	149840.3	234
0	1500806	150080.5	3
0	1501118	150111.7	26
0	1502158	150215.7	20
0	1502654	150265.3	4
0	1503882	150388.1	13
0	1505174	150517.3	32
0	1507722	150772.1	8
0	1508448	150844.7	92
0	1511218	151121.7	16
0	1511804	151180.3	90
0	1513018	151301.7	6
0	1513870	151386.9	67
0	1517160	151715.9	223
0	1517188	151718.7	14
0	1520626	152062.5	28
0	1522132	152213.1	8
0	1522874	152287.3	285
0	1526332	152633.1	74
0	1526984	152698.3	173
0	1527882	152788.1	85
0	1530048	153004.7	51
0	1531212	153121.1	106
0	1534754	153475.3	58
0	1536194	153619.3	114
0	1538336	153833.5	9
0	1538998	153899.7	58
0	1539228	153922.7	148
0	1539966	153996.5	57
0	1540740	154073.9	37
0	1544034	154403.3	81
0	1545944	154594.3	26
0	1546702	154670.1	13
0	1548670	154866.9	17
0	1548962	154896.1	237
0	1549008	154900.7	26
0	1549452	154945.1	3
0	1550906	155090.5	334
0	1551684	155168.3	26
0	1551724	155172.3	9
0	1552056	155205.5	254
0	1552210	155220.9	59
0	1554108	155410.7	28
0	1555170	155516.9	132
0	1555834	155583.3	52
0	1557784	155778.3	73
0	1560814	156081.3	43
0	1561222	156122.1	125
0	1563306	156330.5	53
0	1564644	156464.3	31
0	1565812	156581.1	99
0	1568230	156822.9	71
0	1569912	156991.1	83
0	1570598	157059.7	142
0	1570668	157066.7	33
0	1571064	157106.3	12
0	1571496	157149.5	20
0	1573452	157345.1	104
0	1574664	157466.3	95
0	1575174	157517.3	159
0	1577368	157736.7	40
0	1579166	157916.5	76
0	1580312	158031.1	39
0	1580886	158088.5	38
0	1583352	158335.1	9
0	1584396	158439.5	82
0	1584862	158486.1	182
0	1585590	158558.9	64
0	1587304	158730.3	5
0	1587980	158797.9	104
0	1590322	159032.1	49
0	1590950	159094.9	130
0	1591072	159107.1	19
0	1591174	159117.3	71
0	1591194	159119.3	6
0	1591330	159132.9	81
0	1591788	159178.7	7
0	1592018	159201.7	78
0	1592430	159242.9	109
0	1593686	159368.5	51
0	1593974	159397.3	81
0	1594538	159453.7	150
0	1595598	159559.7	21
0	1595912	159591.1	168
0	1598242	159824.1	24
0	1600522	160052.1	75
0	1600864	160086.3	223
0	1601418	160141.7	104
0	1602372	160237.1	107
0	1603720	160371.9	6
0	1603904	160390.3	10
0	1606334	160633.3	21
0	1606792	160679.1	55
0	1607254	160725.3	84
0	1607730	160772.9	303
0	1609330	160932.9	80
0	1610230	161022.9	157
0	1611242	161124.1	34
0	1611306	161130.5	36
0	1611950	161194.9	9
0	1611984	161198.3	4
0	1616142	161614.1	31
0	1617230	161722.9	2
0	1620776	162077.5	148
0	1623316	162331.5	288
0	1623656	162365.5	302
0	1624144	162414.3	221
0	1626414	162641.3	16
0	1627944	162794.3	230
0	1628052	162805.1	1
0	1628164	162816.3	104
0	1628524	162852.3	146
0	1628676	162867.5	14
0	1629248	162924.7	149
0	1629766	162976.5	162
0	1630254	163025.3	43
0	1630566	163056.5	15
0	1631162	163116.1	124
0	1631498	163149.7	53
0	1632010	163200.9	21
0	1632462	163246.1	209
0	1633814	163381.3	5
0	1635820	163581.9	12
0	1636130	163612.9	64
0	1636308	163630.7	149
0	1636956	163695.5	95
0	1639504	163950.3	55
0	1641176	164117.5	39
0	1642024	164202.3	45
0	1642062	164206.1	36
0	1644536	164453.5	36
0	1645544	164554.3	62
0	1645804	164580.3	57
0	1647090	164708.9	49
0	1649964	164996.3	123
0	1651264	165126.3	49
0	1652098	165209.7	27
0	1656986	165698.5	238
0	1658922	165892.1	51
0	1659536	165953.5	100
0	1659906	165990.5	69
0	1660812	166081.1	12
0	1661478	166147.7	152
0	1662730	166272.9	6
0	1663724	166372.3	17
0	1664820	166481.9	282
0	1665508	166550.7	95
0	1665832	166583.1	71
0	1667066	166706.5	12
0	1667440	166743.9	118
0	1667702	166770.1	53
0	1668374	166837.3	1
0	1670406	167040.5	82
0	1672444	167244.3	20
0	1673246	167324.5	497
0	1674132	167413.1	23
0	1675736	167573.5	22
0	1677916	167791.5	22
0	1678154	167815.3	38
0	1679148	167914.7	12
0	1680242	168024.1	4
0	1682782	168278.1	30
0	1683654	168365.3	163
0	1683992	168399.1	53
0	1686028	168602.7	198
0	1686776	168677.5	4
0	1687844	168784.3	35
0	1688746	168874.5	57
0	1689716	168971.5	298
0	1690358	169035.7	88
0	1690832	169083.1	83
0	1691926	169192.5	91
0	1692462	169246.1	170
0	1693602	169360.1	56
0	1694966	169496.5	81
0	1695080	169507.9	73
0	1696060	169605.9	70
0	1696652	169665.1	7
0	1701492	170149.1	180