version 3
run General-109-20230611-05:41:39-416617
attr configname General
attr datetime 20230611-05:41:39
attr datetimef 20230611-054139
attr experiment General
attr inifile omnetpp.ini
attr iterationvars $N=85
attr iterationvarsd N=85
attr iterationvarsf N=85-
attr measurement $N=85
attr network LN
attr processid 416617
attr repetition 1
attr replication #1
attr resultdir results
attr runnumber 109
attr seedset 109
itervar N 85
config network LN
config sim-time-limit 250000s
config **.tic[*].hopCount.result-recording-modes +vector
config *.numCentralNodes 85
config repeat 4

vector 0 LN.lnd[7] hopCount:vector ETV
attr interpolationmode none
attr recordingmode vector
attr source arrival
attr title "hop count"
vector 1 LN.lnd[14] hopCount:vector ETV
attr interpolationmode none
attr recordingmode vector
attr source arrival
attr title "hop count"
vector 2 LN.lnd[8] hopCount:vector ETV
attr interpolationmode none
attr recordingmode vector
attr source arrival
attr title "hop count"
vector 3 LN.lnd[9] hopCount:vector ETV
attr interpolationmode none
attr recordingmode vector
attr source arrival
attr title "hop count"
vector 4 LN.lnd[11] hopCount:vector ETV
attr interpolationmode none
attr recordingmode vector
attr source arrival
attr title "hop count"
vector 5 LN.lnd[15] hopCount:vector ETV
attr interpolationmode none
attr recordingmode vector
attr source arrival
attr title "hop count"
vector 6 LN.lnd[5] hopCount:vector ETV
attr interpolationmode none
attr recordingmode vector
attr source arrival
attr title "hop count"
vector 7 LN.lnd[1] hopCount:vector ETV
attr interpolationmode none
attr recordingmode vector
attr source arrival
attr title "hop count"
vector 8 LN.lnd[3] hopCount:vector ETV
attr interpolationmode none
attr recordingmode vector
attr source arrival
attr title "hop count"
vector 9 LN.lnd[12] hopCount:vector ETV
attr interpolationmode none
attr recordingmode vector
attr source arrival
attr title "hop count"
vector 10 LN.lnd[19] hopCount:vector ETV
attr interpolationmode none
attr recordingmode vector
attr source arrival
attr title "hop count"
vector 11 LN.lnd[17] hopCount:vector ETV
attr interpolationmode none
attr recordingmode vector
attr source arrival
attr title "hop count"
vector 12 LN.lnd[16] hopCount:vector ETV
attr interpolationmode none
attr recordingmode vector
attr source arrival
attr title "hop count"
vector 13 LN.lnd[0] hopCount:vector ETV
attr interpolationmode none
attr recordingmode vector
attr source arrival
attr title "hop count"
vector 14 LN.lnd[2] hopCount:vector ETV
attr interpolationmode none
attr recordingmode vector
attr source arrival
attr title "hop count"
vector 15 LN.lnd[18] hopCount:vector ETV
attr interpolationmode none
attr recordingmode vector
attr source arrival
attr title "hop count"
vector 16 LN.lnd[4] hopCount:vector ETV
attr interpolationmode none
attr recordingmode vector
attr source arrival
attr title "hop count"
vector 17 LN.lnd[13] hopCount:vector ETV
attr interpolationmode none
attr recordingmode vector
attr source arrival
attr title "hop count"
vector 18 LN.lnd[6] hopCount:vector ETV
attr interpolationmode none
attr recordingmode vector
attr source arrival
attr title "hop count"
vector 19 LN.lnd[10] hopCount:vector ETV
attr interpolationmode none
attr recordingmode vector
attr source arrival
attr title "hop count"
0	116	11.5	115
0	2028	202.7	1
0	2440	243.9	23
0	5486	548.5	8
0	7162	716.1	186
0	10002	1000.1	36
0	13830	1382.9	31
0	14910	1490.9	46
0	15008	1500.7	69
0	15508	1550.7	9
0	17278	1727.7	33
0	18062	1806.1	43
0	18746	1874.5	131
0	19966	1996.5	39
0	20694	2069.3	18
0	20750	2074.9	32
0	20860	2085.9	96
0	22830	2282.9	61
0	24664	2466.3	50
0	26058	2605.7	32
0	31004	3100.3	121
0	33300	3329.9	210
0	37558	3755.7	48
0	37642	3764.1	14
0	38230	3822.9	6
0	38492	3849.1	107
0	39956	3995.5	133
0	42746	4274.5	151
0	43462	4346.1	39
0	43578	4357.7	67
0	43858	4385.7	55
0	44110	4410.9	62
0	46054	4605.3	1
0	47512	4751.1	107
0	47624	4762.3	14
0	48106	4810.5	48
0	49802	4980.1	34
0	51778	5177.7	38
0	53174	5317.3	151
0	53468	5346.7	224
0	53756	5375.5	67
0	54164	5416.3	44
0	55182	5518.1	44
0	55628	5562.7	250
0	55916	5591.5	55
0	57042	5704.1	78
0	57524	5752.3	2
0	58062	5806.1	26
0	58340	5833.9	39
0	59672	5967.1	13
0	60662	6066.1	78
0	60930	6092.9	25
0	64528	6452.7	199
0	65764	6576.3	6
0	68238	6823.7	188
0	69302	6930.1	103
0	69658	6965.7	103
0	71998	7199.7	76
0	72228	7222.7	70
0	76516	7651.5	64
0	76588	7658.7	9
0	78264	7826.3	44
0	79102	7910.1	182
0	79732	7973.1	114
0	80814	8081.3	36
0	81654	8165.3	181
0	83158	8315.7	11
0	84204	8420.3	22
0	84366	8436.5	74
0	84718	8471.7	91
0	85152	8515.1	1
0	86110	8610.9	4
0	86330	8632.9	37
0	89420	8941.9	114
0	90156	9015.5	10
0	90808	9080.7	145
0	92938	9293.7	166
0	94084	9408.3	10
0	94328	9432.7	49
0	94520	9451.9	92
0	95428	9542.7	1
0	96914	9691.3	78
0	98422	9842.1	101
0	100924	10092.3	98
0	102300	10229.9	46
0	103664	10366.3	7
0	104070	10406.9	13
0	104212	10421.1	26
0	104770	10476.9	99
0	105538	10553.7	244
0	106492	10649.1	1
0	107656	10765.5	5
0	107800	10779.9	65
0	108614	10861.3	173
0	109064	10906.3	190
0	111512	11151.1	20
0	111834	11183.3	11
0	112812	11281.1	64
0	113586	11358.5	1
0	113950	11394.9	239
0	114118	11411.7	10
0	115126	11512.5	35
0	115272	11527.1	91
0	116844	11684.3	154
0	117286	11728.5	64
0	120348	12034.7	85
0	121840	12183.9	1
0	122216	12221.5	21
0	122580	12257.9	21
0	122778	12277.7	23
0	122816	12281.5	7
0	124564	12456.3	124
0	128702	12870.1	245
0	128998	12899.7	216
0	129386	12938.5	53
0	129508	12950.7	32
0	131732	13173.1	5
0	133398	13339.7	124
0	134926	13492.5	105
0	135420	13541.9	2
0	137844	13784.3	1
0	139442	13944.1	55
0	141010	14100.9	101
0	141348	14134.7	179
0	143222	14322.1	137
0	143426	14342.5	1
0	145088	14508.7	20
0	146176	14617.5	8
0	147904	14790.3	57
0	150218	15021.7	25
0	150680	15067.9	198
0	152354	15235.3	131
0	153072	15307.1	1
0	154288	15428.7	34
0	155238	15523.7	83
0	155802	15580.1	24
0	156418	15641.7	118
0	157098	15709.7	8
0	158494	15849.3	162
0	160244	16024.3	60
0	160628	16062.7	64
0	163096	16309.5	27
0	164400	16439.9	51
0	165906	16590.5	111
0	166222	16622.1	24
0	167554	16755.3	16
0	168350	16834.9	23
0	171014	17101.3	15
0	173238	17323.7	47
0	174550	17454.9	39
0	176350	17634.9	114
0	177098	17709.7	116
0	177824	17782.3	112
0	182986	18298.5	208
0	183936	18393.5	150
0	184178	18417.7	9
0	185638	18563.7	296
0	188474	18847.3	6
0	189976	18997.5	2
0	190528	19052.7	2
0	192270	19226.9	15
0	197376	19737.5	1
0	197578	19757.7	52
0	197912	19791.1	71
0	198366	19836.5	49
0	199226	19922.5	30
0	201620	20161.9	131
0	203010	20300.9	32
0	206112	20611.1	143
0	206490	20648.9	281
0	208782	20878.1	31
0	210654	21065.3	1
0	214972	21497.1	122
0	216258	21625.7	43
0	216296	21629.5	19
0	221568	22156.7	35
0	222684	22268.3	112
0	226108	22610.7	6
0	226594	22659.3	74
0	227936	22793.5	177
0	229350	22934.9	19
0	230696	23069.5	1
0	231190	23118.9	164
0	231654	23165.3	92
0	232266	23226.5	217
0	232800	23279.9	4
0	232886	23288.5	5
0	233010	23300.9	12
0	234174	23417.3	132
0	237040	23703.9	64
0	239564	23956.3	49
0	240420	24041.9	92
0	240508	24050.7	65
0	241540	24153.9	130
0	242036	24203.5	21
0	242192	24219.1	51
0	242258	24225.7	34
0	242624	24262.3	203
0	243118	24311.7	50
0	243306	24330.5	103
0	243890	24388.9	141
0	244500	24449.9	1
0	244726	24472.5	175
0	245724	24572.3	96
0	246570	24656.9	48
0	247042	24704.1	269
0	247504	24750.3	74
0	249034	24903.3	5
0	249432	24943.1	48
0	250160	25015.9	90
0	251154	25115.3	50
0	252372	25237.1	134
0	252444	25244.3	7
0	253960	25395.9	21
0	255730	25572.9	1
0	256240	25623.9	243
0	257242	25724.1	11
0	259594	25959.3	266
0	261380	26137.9	27
0	261700	26169.9	164
0	262052	26205.1	8
0	264458	26445.7	100
0	264570	26456.9	57
0	271332	27133.1	40
0	272162	27216.1	233
0	273366	27336.5	20
0	273472	27347.1	10
0	274374	27437.3	1
0	277348	27734.7	149
0	277690	27768.9	136
0	278436	27843.5	11
0	279448	27944.7	265
0	279884	27988.3	67
0	280794	28079.3	1
0	281178	28117.7	10
0	283650	28364.9	1
0	283992	28399.1	36
0	284142	28414.1	48
0	284870	28486.9	56
0	286374	28637.3	66
0	286774	28677.3	7
0	287272	28727.1	9
0	287470	28746.9	112
0	289352	28935.1	109
0	289774	28977.3	143
0	291252	29125.1	13
0	291390	29138.9	8
0	292212	29221.1	33
0	293744	29374.3	47
0	294354	29435.3	34
0	294962	29496.1	11
0	295664	29566.3	28
0	296382	29638.1	115
0	298790	29878.9	43
0	299614	29961.3	64
0	299972	29997.1	105
0	300970	30096.9	75
0	303392	30339.1	68
0	304112	30411.1	18
0	304310	30430.9	8
0	304858	30485.7	2
0	307464	30746.3	231
0	307548	30754.7	3
0	308206	30820.5	108
0	308954	30895.3	24
0	309836	30983.5	163
0	313782	31378.1	70
0	313996	31399.5	69
0	315252	31525.1	9
0	315372	31537.1	12
0	316358	31635.7	78
0	318980	31897.9	1
0	319682	31968.1	2
0	320226	32022.5	4
0	320650	32064.9	181
0	321634	32163.3	67
0	323032	32303.1	19
0	327402	32740.1	14
0	327542	32754.1	106
0	328104	32810.3	7
0	329672	32967.1	72
0	330882	33088.1	4
0	331762	33176.1	24
0	332094	33209.3	73
0	332208	33220.7	51
0	333116	33311.5	30
0	333296	33329.5	135
0	335432	33543.1	25
0	338562	33856.1	4
0	338830	33882.9	1
0	338904	33890.3	45
0	339632	33963.1	39
0	340010	34000.9	74
0	340730	34072.9	96
0	343390	34338.9	1
0	345162	34516.1	88
0	345592	34559.1	81
0	345810	34580.9	152
0	348072	34807.1	39
0	348786	34878.5	1
0	348986	34898.5	170
0	349002	34900.1	10
0	349894	34989.3	67
0	350580	35057.9	4
0	351844	35184.3	218
0	353984	35398.3	18
0	354298	35429.7	1
0	354352	35435.1	25
0	354694	35469.3	25
0	356114	35611.3	1
0	357592	35759.1	99
0	357862	35786.1	163
0	360230	36022.9	78
0	361386	36138.5	99
0	362166	36216.5	17
0	362814	36281.3	9
0	365460	36545.9	39
0	367418	36741.7	33
0	368426	36842.5	73
0	371580	37157.9	1
0	373202	37320.1	6
0	374148	37414.7	1
0	374150	37414.9	1
0	377662	37766.1	134
0	378052	37805.1	5
0	380566	38056.5	150
0	381302	38130.1	96
0	381536	38153.5	196
0	381890	38188.9	184
0	385002	38500.1	1
0	385312	38531.1	54
0	386510	38650.9	43
0	387926	38792.5	7
0	388072	38807.1	2
0	389280	38927.9	72
0	390410	39040.9	90
0	392452	39245.1	1
0	396262	39626.1	3
0	398668	39866.7	1
0	399476	39947.5	6
0	399978	39997.7	11
0	400120	40011.9	9
0	402112	40211.1	1
0	402398	40239.7	1
0	403776	40377.5	249
0	403942	40394.1	89
0	404556	40455.5	145
0	405030	40502.9	211
0	413044	41304.3	29
0	415230	41522.9	330
0	416018	41601.7	12
0	416450	41644.9	124
0	416492	41649.1	6
0	417186	41718.5	82
0	417188	41718.7	1
0	418410	41840.9	132
0	418852	41885.1	2
0	419760	41975.9	1
0	424326	42432.5	43
0	424822	42482.1	203
0	427268	42726.7	12
0	427794	42779.3	125
0	430592	43059.1	26
0	431768	43176.7	67
0	431848	43184.7	17
0	432782	43278.1	2
0	437154	43715.3	14
0	437264	43726.3	53
0	438630	43862.9	23
0	438806	43880.5	1
0	442914	44291.3	4
0	443678	44367.7	31
0	445236	44523.5	5
0	448286	44828.5	42
0	449944	44994.3	120
0	451116	45111.5	83
0	452754	45275.3	16
0	453048	45304.7	34
0	454078	45407.7	78
0	456118	45611.7	7
0	457816	45781.5	53
0	459128	45912.7	263
0	459392	45939.1	31
0	459826	45982.5	86
0	460138	46013.7	3
0	461616	46161.5	88
0	466376	46637.5	77
0	467556	46755.5	158
0	469164	46916.3	12
0	472664	47266.3	84
0	475058	47505.7	63
0	475408	47540.7	1
0	475792	47579.1	89
0	479166	47916.5	18
0	481762	48176.1	173
0	481830	48182.9	1
0	485190	48518.9	140
0	487478	48747.7	224
0	492994	49299.3	39
0	494918	49491.7	126
0	496578	49657.7	43
0	498050	49804.9	55
0	498232	49823.1	18
0	499046	49904.5	116
0	500656	50065.5	11
0	501460	50145.9	1
0	502622	50262.1	128
0	503190	50318.9	62
0	503584	50358.3	112
0	504434	50443.3	196
0	506064	50606.3	5
0	510924	51092.3	450
0	511530	51152.9	40
0	512008	51200.7	8
0	512914	51291.3	5
0	514284	51428.3	120
0	518936	51893.5	126
0	521498	52149.7	115
0	524514	52451.3	30
0	524720	52471.9	41
0	526914	52691.3	51
0	527508	52750.7	1
0	530986	53098.5	426
0	531034	53103.3	19
0	532382	53238.1	20
0	535508	53550.7	48
0	539916	53991.5	48
0	540256	54025.5	117
0	543290	54328.9	66
0	543468	54346.7	78
0	544844	54484.3	36
0	545342	54534.1	25
0	547514	54751.3	30
0	548328	54832.7	2
0	549960	54995.9	8
0	550302	55030.1	17
0	550346	55034.5	18
0	550880	55087.9	114
0	551106	55110.5	1
0	554098	55409.7	74
0	557286	55728.5	489
0	563764	56376.3	104
0	564350	56434.9	84
0	564596	56459.5	64
0	566940	56693.9	1
0	570344	57034.3	55
0	570950	57094.9	166
0	573060	57305.9	16
0	574712	57471.1	10
0	575234	57523.3	1
0	575558	57555.7	33
0	576562	57656.1	2
0	576882	57688.1	8
0	578096	57809.5	2
0	578414	57841.3	22
0	578662	57866.1	23
0	580932	58093.1	162
0	581710	58170.9	13
0	582030	58202.9	11
0	582292	58229.1	37
0	583016	58301.5	83
0	583456	58345.5	193
0	583632	58363.1	14
0	585338	58533.7	68
0	585848	58584.7	33
0	587838	58783.7	58
0	588822	58882.1	209
0	589590	58958.9	51
0	591556	59155.5	4
0	593008	59300.7	119
0	594896	59489.5	39
0	597178	59717.7	266
0	597564	59756.3	302
0	597910	59790.9	11
0	599604	59960.3	32
0	602428	60242.7	5
0	604246	60424.5	75
0	605242	60524.1	7
0	606122	60612.1	62
0	607344	60734.3	62
0	608036	60803.5	2
0	611426	61142.5	18
0	611622	61162.1	76
0	612874	61287.3	226
0	613460	61345.9	2
0	614020	61401.9	121
0	614352	61435.1	9
0	615390	61538.9	13
0	616890	61688.9	158
0	617070	61706.9	64
0	619280	61927.9	98
0	620396	62039.5	23
0	621020	62101.9	18
0	622008	62200.7	107
0	622342	62234.1	85
0	623778	62377.7	150
0	624412	62441.1	1
0	626026	62602.5	116
0	627498	62749.7	72
0	629824	62982.3	36
0	630508	63050.7	38
0	635952	63595.1	3
0	636408	63640.7	1
0	638204	63820.3	83
0	639532	63953.1	74
0	640982	64098.1	37
0	641626	64162.5	1
0	642934	64293.3	183
0	645634	64563.3	7
0	648234	64823.3	22
0	649240	64923.9	45
0	649424	64942.3	121
0	651362	65136.1	54
0	651780	65177.9	96
0	654042	65404.1	117
0	654412	65441.1	29
0	657102	65710.1	5
0	657856	65785.5	149
0	657974	65797.3	71
0	657984	65798.3	5
0	659192	65919.1	51
0	660108	66010.7	34
0	662252	66225.1	171
0	662310	66230.9	7
0	662484	66248.3	12
0	664278	66427.7	46
0	664834	66483.3	62
0	665792	66579.1	111
0	667046	66704.5	114
0	668194	66819.3	186
0	669214	66921.3	115
0	669978	66997.7	150
0	673790	67378.9	17
0	675912	67591.1	64
0	676684	67668.3	103
0	677962	67796.1	20
0	679020	67901.9	298
0	683812	68381.1	57
0	684356	68435.5	70
0	685668	68566.7	98
0	688490	68848.9	141
0	688908	68890.7	20
0	691080	69107.9	187
0	694026	69402.5	204
0	694808	69480.7	452
0	695074	69507.3	12
0	695514	69551.3	164
0	697674	69767.3	121
0	697820	69781.9	33
0	698318	69831.7	62
0	698390	69838.9	1
0	699052	69905.1	397
0	700736	70073.5	554
0	701192	70119.1	32
0	701860	70185.9	15
0	703812	70381.1	1
0	704948	70494.7	25
0	705044	70504.3	71
0	706104	70610.3	61
0	706420	70641.9	147
0	707272	70727.1	474
0	707626	70762.5	43
0	709394	70939.3	2
0	709532	70953.1	8
0	710374	71037.3	133
0	710392	71039.1	15
0	713870	71386.9	7
0	718192	71819.1	252
0	718710	71870.9	1
0	719792	71979.1	57
0	721164	72116.3	178
0	724444	72444.3	80
0	724688	72468.7	1
0	725312	72531.1	14
0	726946	72694.5	120
0	728860	72885.9	300
0	730816	73081.5	7
0	733036	73303.5	46
0	733354	73335.3	61
0	733684	73368.3	25
0	734116	73411.5	170
0	736666	73666.5	41
0	736904	73690.3	36
0	737520	73751.9	56
0	739526	73952.5	27
0	740624	74062.3	121
0	740856	74085.5	26
0	743482	74348.1	101
0	743724	74372.3	10
0	745018	74501.7	28
0	745154	74515.3	22
0	745222	74522.1	42
0	745970	74596.9	1
0	746522	74652.1	16
0	746718	74671.7	68
0	747510	74750.9	121
0	748500	74849.9	27
0	751318	75131.7	160
0	754252	75425.1	4
0	758706	75870.5	43
0	760236	76023.5	298
0	760638	76063.7	51
0	761966	76196.5	4
0	764206	76420.5	86
0	764924	76492.3	42
0	765996	76599.5	55
0	766846	76684.5	148
0	767998	76799.7	2
0	769626	76962.5	157
0	771606	77160.5	48
0	772900	77289.9	60
0	779410	77940.9	44
0	781000	78099.9	67
0	783672	78367.1	9
0	787868	78786.7	67
0	789588	78958.7	56
0	792930	79292.9	57
0	793070	79306.9	7
0	794422	79442.1	62
0	797034	79703.3	25
0	797520	79751.9	407
0	799688	79968.7	12
0	801082	80108.1	240
0	803246	80324.5	6
0	805320	80531.9	76
0	807356	80735.5	155
0	808258	80825.7	418
0	810100	81009.9	58
0	814462	81446.1	40
0	816928	81692.7	41
0	820424	82042.3	74
0	820878	82087.7	33
0	821548	82154.7	172
0	823176	82317.5	92
0	824028	82402.7	85
0	824694	82469.3	49
0	824970	82496.9	184
0	825248	82524.7	184
0	826044	82604.3	68
0	826916	82691.5	188
0	829860	82985.9	68
0	830146	83014.5	20
0	834150	83414.9	18
0	835998	83599.7	63
0	839474	83947.3	11
0	840288	84028.7	9
0	841490	84148.9	105
0	841976	84197.5	1
0	843358	84335.7	19
0	843980	84397.9	249
0	845156	84515.5	30
0	845932	84593.1	49
0	846248	84624.7	1
0	847018	84701.7	1
0	848352	84835.1	48
0	850720	85071.9	94
0	851544	85154.3	31
0	853912	85391.1	5
0	854068	85406.7	23
0	855332	85533.1	128
0	855562	85556.1	12
0	857212	85721.1	134
0	857782	85778.1	199
0	858364	85836.3	40
0	861526	86152.5	80
0	861946	86194.5	156
0	862844	86284.3	63
0	864764	86476.3	6
0	865016	86501.5	176
0	865574	86557.3	115
0	867276	86727.5	149
0	868840	86883.9	25
0	870788	87078.7	384
0	871160	87115.9	111
0	871310	87130.9	1
0	872046	87204.5	16
0	875056	87505.5	54
0	875096	87509.5	9
0	877068	87706.7	134
0	880254	88025.3	56
0	881248	88124.7	35
0	882980	88297.9	31
0	884986	88498.5	1
0	886398	88639.7	72
0	887324	88732.3	2
0	887896	88789.5	59
0	889788	88978.7	4
0	891492	89149.1	1
0	896312	89631.1	2
0	896584	89658.3	16
0	903054	90305.3	20
0	903918	90391.7	231
0	906936	90693.5	77
0	908500	90849.9	118
0	909922	90992.1	154
0	913298	91329.7	1
0	913776	91377.5	70
0	913990	91398.9	93
0	915318	91531.7	82
0	915704	91570.3	4
0	917030	91702.9	1
0	917710	91770.9	317
0	917864	91786.3	39
0	918788	91878.7	89
0	918858	91885.7	31
0	919044	91904.3	61
0	923372	92337.1	136
0	925734	92573.3	16
0	927640	92763.9	27
0	928588	92858.7	25
0	930594	93059.3	84
0	931046	93104.5	33
0	933216	93321.5	9
0	934954	93495.3	63
0	937878	93787.7	1
0	941298	94129.7	65
0	941540	94153.9	15
0	943606	94360.5	30
0	947104	94710.3	9
0	948130	94812.9	9
0	952242	95224.1	82
0	953768	95376.7	45
0	955110	95510.9	7
0	958012	95801.1	99
0	959218	95921.7	20
0	959796	95979.5	108
0	961066	96106.5	141
0	962854	96285.3	335
0	964230	96422.9	4
0	970052	97005.1	125
0	970814	97081.3	2
0	971152	97115.1	1
0	972254	97225.3	17
0	974214	97421.3	126
0	975118	97511.7	207
0	975824	97582.3	13
0	977408	97740.7	303
0	979226	97922.5	151
0	980988	98098.7	185
0	981334	98133.3	81
0	981800	98179.9	80
0	985094	98509.3	153
0	985468	98546.7	4
0	986112	98611.1	14
0	987106	98710.5	128
0	989128	98912.7	41
0	989154	98915.3	4
0	990326	99032.5	50
0	990682	99068.1	30
0	993166	99316.5	62
0	993260	99325.9	35
0	994512	99451.1	8
0	994680	99467.9	114
0	996612	99661.1	199
0	998654	99865.3	42
0	998784	99878.3	61
0	999068	99906.7	140
0	999118	99911.7	13
0	999548	99954.7	12
0	1001496	100149.5	96
0	1002358	100235.7	61
0	1003100	100309.9	12
0	1003330	100332.9	95
0	1004324	100432.3	114
0	1006968	100696.7	67
0	1007688	100768.7	21
0	1008154	100815.3	134
0	1008400	100839.9	62
0	1012718	101271.7	1
0	1016416	101641.5	1
0	1018840	101883.9	1
0	1020774	102077.3	213
0	1021280	102127.9	12
0	1028928	102892.7	68
0	1029248	102924.7	57
0	1030594	103059.3	4
0	1032132	103213.1	363
0	1032670	103266.9	209
0	1032720	103271.9	27
0	1033054	103305.3	42
0	1033420	103341.9	9
0	1033934	103393.3	135
0	1034386	103438.5	5
0	1035612	103561.1	276
0	1036104	103610.3	128
0	1036406	103640.5	126
0	1038150	103814.9	60
0	1039330	103932.9	93
0	1039854	103985.3	57
0	1040042	104004.1	113
0	1041170	104116.9	4
0	1041256	104125.5	48
0	1043104	104310.3	211
0	1046328	104632.7	105
0	1046632	104663.1	195
0	1048090	104808.9	45
0	1049084	104908.3	28
0	1050464	105046.3	66
0	1050858	105085.7	57
0	1053884	105388.3	8
0	1054398	105439.7	115
0	1056872	105687.1	3
0	1057270	105726.9	63
0	1058624	105862.3	219
0	1059700	105969.9	227
0	1060362	106036.1	128
0	1060906	106090.5	21
0	1061894	106189.3	299
0	1062184	106218.3	62
0	1063128	106312.7	73
0	1063780	106377.9	95
0	1068006	106800.5	280
0	1069338	106933.7	16
0	1070198	107019.7	35
0	1071930	107192.9	88
0	1072242	107224.1	145
0	1075022	107502.1	39
0	1076034	107603.3	27
0	1076496	107649.5	41
0	1077596	107759.5	47
0	1082342	108234.1	134
0	1083538	108353.7	121
0	1084108	108410.7	2
0	1084218	108421.7	33
0	1085322	108532.1	85
0	1086958	108695.7	19
0	1088190	108818.9	57
0	1089020	108901.9	1
0	1089138	108913.7	42
0	1090994	109099.3	130
0	1093136	109313.5	237
0	1094744	109474.3	28
0	1096180	109617.9	69
0	1096726	109672.5	21
0	1097178	109717.7	136
0	1097650	109764.9	2
0	1098322	109832.1	25
0	1099176	109917.5	50
0	1099682	109968.1	496
0	1100302	110030.1	1
0	1100918	110091.7	102
0	1102596	110259.5	3
0	1106750	110674.9	322
0	1108156	110815.5	31
0	1109768	110976.7	12
0	1110894	111089.3	1
0	1111750	111174.9	14
0	1116528	111652.7	93
0	1117222	111722.1	230
0	1118880	111887.9	9
0	1122286	112228.5	75
0	1124816	112481.5	15
0	1125482	112548.1	22
0	1126014	112601.3	52
0	1130622	113062.1	191
0	1131060	113105.9	70
0	1132086	113208.5	133
0	1132858	113285.7	167
0	1134142	113414.1	78
0	1134368	113436.7	75
0	1135024	113502.3	88
0	1135702	113570.1	183
0	1137664	113766.3	87
0	1138402	113840.1	102
0	1138698	113869.7	43
0	1139174	113917.3	16
0	1140036	114003.5	298
0	1142218	114221.7	2
0	1142414	114241.3	1
0	1145066	114506.5	305
0	1147000	114699.9	1
0	1148842	114884.1	83
0	1150236	115023.5	11
0	1152208	115220.7	27
0	1152652	115265.1	16
0	1154316	115431.5	38
0	1158154	115815.3	4
0	1158494	115849.3	6
0	1158766	115876.5	61
0	1159556	115955.5	272
0	1163082	116308.1	67
0	1163614	116361.3	72
0	1164968	116496.7	90
0	1165296	116529.5	9
0	1166422	116642.1	2
0	1168838	116883.7	138
0	1168994	116899.3	2
0	1171150	117114.9	196
0	1171446	117144.5	75
0	1173094	117309.3	27
0	1175330	117532.9	112
0	1176154	117615.3	137
0	1176722	117672.1	2
0	1176894	117689.3	16
0	1177690	117768.9	34
0	1178018	117801.7	63
0	1178768	117876.7	126
0	1180662	118066.1	44
0	1182112	118211.1	91
0	1183796	118379.5	141
0	1185030	118502.9	324
0	1185730	118572.9	56
0	1186002	118600.1	188
0	1186528	118652.7	4
0	1186982	118698.1	13
0	1189194	118919.3	65
0	1190560	119055.9	6
0	1190616	119061.5	11
0	1190704	119070.3	29
0	1194302	119430.1	187
0	1194970	119496.9	16
0	1195336	119533.5	12
0	1195522	119552.1	47
0	1198848	119884.7	102
0	1199900	119989.9	11
0	1203190	120318.9	34
0	1203780	120377.9	344
0	1203900	120389.9	12
0	1204036	120403.5	16
0	1205584	120558.3	23
0	1205860	120585.9	45
0	1206446	120644.5	8
0	1208374	120837.3	1
0	1209076	120907.5	193
0	1212406	121240.5	160
0	1212478	121247.7	64
0	1213436	121343.5	14
0	1216462	121646.1	108
0	1220016	122001.5	61
0	1222770	122276.9	107
0	1225930	122592.9	87
0	1226458	122645.7	67
0	1228902	122890.1	15
0	1229030	122902.9	96
0	1229638	122963.7	82
0	1232268	123226.7	1
0	1233622	123362.1	4
0	1234780	123477.9	70
0	1234974	123497.3	61
0	1235836	123583.5	8
0	1236466	123646.5	8
0	1236562	123656.1	47
0	1238346	123834.5	311
0	1239584	123958.3	1
0	1240208	124020.7	162
0	1242276	124227.5	24
0	1243532	124353.1	12
0	1245014	124501.3	41
0	1246136	124613.5	1
0	1251692	125169.1	23
0	1251732	125173.1	11
0	1253412	125341.1	1
0	1256602	125660.1	159
0	1257168	125716.7	391
0	1258254	125825.3	114
0	1259226	125922.5	105
0	1260512	126051.1	179
0	1260898	126089.7	265
0	1260952	126095.1	52
0	1261178	126117.7	8
0	1261596	126159.5	102
0	1263164	126316.3	13
0	1265754	126575.3	29
0	1266656	126665.5	39
0	1268668	126866.7	72
0	1270056	127005.5	65
0	1270476	127047.5	122
0	1271612	127161.1	8
0	1272504	127250.3	52
0	1272846	127284.5	12
0	1273512	127351.1	123
0	1273692	127369.1	38
0	1276760	127675.9	7
0	1277946	127794.5	147
0	1278730	127872.9	59
0	1279826	127982.5	8
0	1282236	128223.5	191
0	1283536	128353.5	5
0	1283610	128360.9	19
0	1283678	128367.7	1
0	1284266	128426.5	23
0	1287764	128776.3	18
0	1290256	129025.5	177
0	1292422	129242.1	24
0	1292982	129298.1	2
0	1293258	129325.7	37
0	1295674	129567.3	13
0	1296482	129648.1	157
0	1302446	130244.5	12
0	1302612	130261.1	46
0	1308376	130837.5	148
0	1308758	130875.7	12
0	1309906	130990.5	171
0	1310952	131095.1	218
0	1313184	131318.3	46
0	1313618	131361.7	189
0	1313778	131377.7	28
0	1314012	131401.1	134
0	1316026	131602.5	4
0	1317416	131741.5	3
0	1317658	131765.7	18
0	1318162	131816.1	24
0	1321260	132125.9	96
0	1321612	132161.1	71
0	1321780	132177.9	23
0	1321956	132195.5	96
0	1322180	132217.9	42
0	1323890	132388.9	28
0	1326208	132620.7	322
0	1326466	132646.5	134
0	1326838	132683.7	16
0	1329950	132994.9	87
0	1330444	133044.3	3
0	1332916	133291.5	23
0	1334824	133482.3	1
0	1336926	133692.5	24
0	1337186	133718.5	66
0	1338446	133844.5	183
0	1342574	134257.3	34
0	1342686	134268.5	9
0	1344136	134413.5	157
0	1346638	134663.7	150
0	1348922	134892.1	86
0	1349142	134914.1	115
0	1350160	135015.9	142
0	1350396	135039.5	79
0	1354724	135472.3	30
0	1355282	135528.1	42
0	1357590	135758.9	104
0	1359612	135961.1	168
0	1361170	136116.9	41
0	1363396	136339.5	180
0	1366624	136662.3	92
0	1367556	136755.5	47
0	1368320	136831.9	96
0	1368392	136839.1	67
0	1370154	137015.3	10
0	1370500	137049.9	94
0	1370924	137092.3	12
0	1371446	137144.5	130
0	1371486	137148.5	4
0	1371588	137158.7	54
0	1372428	137242.7	39
0	1373284	137328.3	74
0	1376034	137603.3	94
0	1376202	137620.1	111
0	1378054	137805.3	274
0	1378634	137863.3	75
0	1378978	137897.7	4
0	1379556	137955.5	3
0	1380530	138052.9	2
0	1381336	138133.5	40
0	1384468	138446.7	343
0	1384972	138497.1	77
0	1385084	138508.3	11
0	1385726	138572.5	39
0	1386272	138627.1	240
0	1387312	138731.1	15
0	1387816	138781.5	133
0	1391540	139153.9	1
0	1391662	139166.1	51
0	1393064	139306.3	17
0	1394016	139401.5	72
0	1394526	139452.5	19
0	1395990	139598.9	170
0	1397476	139747.5	339
0	1400394	140039.3	3
0	1400846	140084.5	242
0	1401574	140157.3	143
0	1402304	140230.3	68
0	1402714	140271.3	22
0	1403580	140357.9	119
0	1403678	140367.7	70
0	1405852	140585.1	107
0	1406554	140655.3	181
0	1408744	140874.3	20
0	1410942	141094.1	141
0	1412282	141228.1	3
0	1412744	141274.3	105
0	1413174	141317.3	10
0	1414512	141451.1	103
0	1414638	141463.7	35
0	1414954	141495.3	39
0	1416224	141622.3	40
0	1417190	141718.9	20
0	1420958	142095.7	28
0	1421752	142175.1	118
0	1422444	142244.3	2
0	1422842	142284.1	4
0	1424788	142478.7	180
0	1424984	142498.3	98
0	1426044	142604.3	178
0	1428156	142815.5	98
0	1429504	142950.3	52
0	1430974	143097.3	32
0	1432476	143247.5	36
0	1433846	143384.5	3
0	1435110	143510.9	6
0	1435724	143572.3	210
0	1438186	143818.5	44
0	1438684	143868.3	269
0	1439348	143934.7	30
0	1441298	144129.7	37
0	1441804	144180.3	71
0	1444568	144456.7	5
0	1445464	144546.3	13
0	1445572	144557.1	4
0	1445964	144596.3	73
0	1446342	144634.1	6
0	1446732	144673.1	6
0	1447692	144769.1	2
0	1448636	144863.5	75
0	1449602	144960.1	28
0	1450160	145015.9	130
0	1452286	145228.5	132
0	1454136	145413.5	4
0	1454598	145459.7	42
0	1457744	145774.3	8
0	1459148	145914.7	15
0	1460294	146029.3	83
0	1460430	146042.9	40
0	1460794	146079.3	99
0	1464216	146421.5	11
0	1465028	146502.7	22
0	1466006	146600.5	26
0	1466626	146662.5	2
0	1467162	146716.1	1
0	1467450	146744.9	95
0	1467546	146754.5	84
0	1469108	146910.7	174
0	1470300	147029.9	9
0	1473594	147359.3	28
0	1478394	147839.3	97
0	1479654	147965.3	16
0	1481440	148143.9	20
0	1481638	148163.7	77
0	1482108	148210.7	12
0	1482484	148248.3	102
0	1484084	148408.3	9
0	1486046	148604.5	61
0	1487550	148754.9	188
0	1488670	148866.9	6
0	1489182	148918.1	99
0	1490480	149047.9	4
0	1491080	149107.9	248
0	1497176	149717.5	1
0	1498612	149861.1	60
0	1499074	149907.3	78
0	1502636	150263.5	132
0	1503760	150375.9	1
0	1505584	150558.3	144
0	1507768	150776.7	155
0	1508070	150806.9	187
0	1508222	150822.1	11
0	1511542	151154.1	121
0	1512236	151223.5	80
0	1513052	151305.1	49
0	1513460	151345.9	24
0	1513906	151390.5	64
0	1514280	151427.9	1
0	1514556	151455.5	25
0	1515788	151578.7	46
0	1517962	151796.1	29
0	1521380	152137.9	97
0	1521636	152163.5	127
0	1522170	152216.9	25
0	1525104	152510.3	160
0	1525226	152522.5	73
0	1525936	152593.5	5
0	1528220	152821.9	5
0	1528882	152888.1	179
0	1529632	152963.1	398
0	1530320	153031.9	18
0	1535798	153579.7	229
0	1540736	154073.5	13
0	1543814	154381.3	87
0	1544212	154421.1	29
0	1544520	154451.9	15
0	1548678	154867.7	56
0	1549908	154990.7	192
0	1551568	155156.7	20
0	1552124	155212.3	56
0	1553172	155317.1	135
0	1554336	155433.5	7
0	1554894	155489.3	111
0	1556652	155665.1	65
0	1557830	155782.9	6
0	1557932	155793.1	87
0	1559808	155980.7	22
0	1561114	156111.3	42
0	1561906	156190.5	100
0	1565570	156556.9	158
0	1567616	156761.5	2
0	1568090	156808.9	39
0	1568538	156853.7	49
0	1568712	156871.1	5
0	1570354	157035.3	164
0	1571388	157138.7	1
0	1571680	157167.9	219
0	1572906	157290.5	335
0	1574740	157473.9	152
0	1576514	157651.3	37
0	1578398	157839.7	61
0	1579914	157991.3	53
0	1582048	158204.7	1
0	1588632	158863.1	15
0	1588732	158873.1	56
0	1589884	158988.3	111
0	1595602	159560.1	2
0	1596464	159646.3	60
0	1598220	159821.9	1
0	1598300	159829.9	1
0	1598778	159877.7	9
0	1599642	159964.1	24
0	1599756	159975.5	45
0	1601150	160114.9	123
0	1605880	160587.9	4
0	1608298	160829.7	1
0	1609114	160911.3	321
0	1609538	160953.7	23
0	1609750	160974.9	12
0	1610286	161028.5	150
0	1611154	161115.3	1
0	1613322	161332.1	456
0	1613404	161340.3	9
0	1615036	161503.5	87
0	1615754	161575.3	3
0	1616514	161651.3	4
0	1616920	161691.9	245
0	1618134	161813.3	70
0	1618646	161864.5	219
0	1620442	162044.1	99
0	1620708	162070.7	40
0	1621710	162170.9	41
0	1623072	162307.1	114
0	1623964	162396.3	21
0	1624268	162426.7	210
0	1625222	162522.1	98
0	1625546	162554.5	38
0	1626470	162646.9	266
0	1627464	162746.3	152
0	1627900	162789.9	312
0	1628836	162883.5	171
0	1629466	162946.5	116
0	1629602	162960.1	34
0	1630418	163041.7	14
0	1631024	163102.3	112
0	1632694	163269.3	15
0	1633638	163363.7	2
0	1634344	163434.3	14
0	1636168	163616.7	190
0	1636850	163684.9	300
0	1637632	163763.1	16
0	1639618	163961.7	233
0	1640522	164052.1	140
0	1642588	164258.7	162
0	1643946	164394.5	66
0	1645770	164576.9	19
0	1649474	164947.3	127
0	1650258	165025.7	1
0	1653882	165388.1	139
0	1655308	165530.7	127
0	1656728	165672.7	67
0	1660208	166020.7	83
0	1661298	166129.7	42
0	1666292	166629.1	34
0	1666420	166641.9	4
0	1666900	166689.9	10
0	1667136	166713.5	53
0	1669008	166900.7	2
0	1670896	167089.5	19
0	1671158	167115.7	162
0	1671696	167169.5	39
0	1672112	167211.1	38
0	1674662	167466.1	1
0	1675098	167509.7	28
0	1676792	167679.1	81
0	1677796	167779.5	91
0	1678144	167814.3	275
0	1678924	167892.3	28
0	1679418	167941.7	3
0	1679578	167957.7	63
0	1682884	168288.3	180
0	1683412	168341.1	24
0	1684202	168420.1	94