version 3
run General-125-20230611-05:41:41-416646
attr configname General
attr datetime 20230611-05:41:41
attr datetimef 20230611-054141
attr experiment General
attr inifile omnetpp.ini
attr iterationvars $N=97
attr iterationvarsd N=97
attr iterationvarsf N=97-
attr measurement $N=97
attr network LN
attr processid 416646
attr repetition 1
attr replication #1
attr resultdir results
attr runnumber 125
attr seedset 125
itervar N 97
config network LN
config sim-time-limit 250000s
config **.tic[*].hopCount.result-recording-modes +vector
config *.numCentralNodes 97
config repeat 4

vector 0 LN.lnd[3] hopCount:vector ETV
attr interpolationmode none
attr recordingmode vector
attr source arrival
attr title "hop count"
vector 1 LN.lnd[14] hopCount:vector ETV
attr interpolationmode none
attr recordingmode vector
attr source arrival
attr title "hop count"
vector 2 LN.lnd[12] hopCount:vector ETV
attr interpolationmode none
attr recordingmode vector
attr source arrival
attr title "hop count"
vector 3 LN.lnd[11] hopCount:vector ETV
attr interpolationmode none
attr recordingmode vector
attr source arrival
attr title "hop count"
vector 4 LN.lnd[2] hopCount:vector ETV
attr interpolationmode none
attr recordingmode vector
attr source arrival
attr title "hop count"
vector 5 LN.lnd[1] hopCount:vector ETV
attr interpolationmode none
attr recordingmode vector
attr source arrival
attr title "hop count"
vector 6 LN.lnd[4] hopCount:vector ETV
attr interpolationmode none
attr recordingmode vector
attr source arrival
attr title "hop count"
vector 7 LN.lnd[0] hopCount:vector ETV
attr interpolationmode none
attr recordingmode vector
attr source arrival
attr title "hop count"
vector 8 LN.lnd[8] hopCount:vector ETV
attr interpolationmode none
attr recordingmode vector
attr source arrival
attr title "hop count"
vector 9 LN.lnd[13] hopCount:vector ETV
attr interpolationmode none
attr recordingmode vector
attr source arrival
attr title "hop count"
vector 10 LN.lnd[17] hopCount:vector ETV
attr interpolationmode none
attr recordingmode vector
attr source arrival
attr title "hop count"
vector 11 LN.lnd[19] hopCount:vector ETV
attr interpolationmode none
attr recordingmode vector
attr source arrival
attr title "hop count"
vector 12 LN.lnd[15] hopCount:vector ETV
attr interpolationmode none
attr recordingmode vector
attr source arrival
attr title "hop count"
vector 13 LN.lnd[5] hopCount:vector ETV
attr interpolationmode none
attr recordingmode vector
attr source arrival
attr title "hop count"
vector 14 LN.lnd[18] hopCount:vector ETV
attr interpolationmode none
attr recordingmode vector
attr source arrival
attr title "hop count"
vector 15 LN.lnd[7] hopCount:vector ETV
attr interpolationmode none
attr recordingmode vector
attr source arrival
attr title "hop count"
vector 16 LN.lnd[10] hopCount:vector ETV
attr interpolationmode none
attr recordingmode vector
attr source arrival
attr title "hop count"
vector 17 LN.lnd[16] hopCount:vector ETV
attr interpolationmode none
attr recordingmode vector
attr source arrival
attr title "hop count"
vector 18 LN.lnd[9] hopCount:vector ETV
attr interpolationmode none
attr recordingmode vector
attr source arrival
attr title "hop count"
vector 19 LN.lnd[6] hopCount:vector ETV
attr interpolationmode none
attr recordingmode vector
attr source arrival
attr title "hop count"
0	17	1.6	16
0	341	34	2
0	847	84.6	7
0	1933	193.2	1
0	6189	618.8	18
0	7937	793.6	1
0	8861	886	12
0	10835	1083.4	7
0	11565	1156.4	3
0	11947	1194.6	1
0	12991	1299	65
0	13225	1322.4	104
0	13635	1363.4	1
0	16053	1605.2	28
0	19001	1900	16
0	20381	2038	1
0	20961	2096	36
0	21651	2165	159
0	23831	2383	4
0	24063	2406.2	8
0	24709	2470.8	20
0	28691	2869	2
0	30313	3031.2	102
0	32201	3220	27
0	32215	3221.4	6
0	32275	3227.4	18
0	33917	3391.6	35
0	37419	3741.8	19
0	38463	3846.2	1
0	39127	3912.6	86
0	43861	4386	3
0	44017	4401.6	12
0	44197	4419.6	3
0	44645	4464.4	2
0	44795	4479.4	10
0	47013	4701.2	1
0	47607	4760.6	33
0	49549	4954.8	1
0	50035	5003.4	15
0	50755	5075.4	23
0	54421	5442	5
0	54855	5485.4	33
0	55901	5590	25
0	56113	5611.2	47
0	56381	5638	2
0	56517	5651.6	14
0	57525	5752.4	16
0	57987	5798.6	39
0	61435	6143.4	69
0	63693	6369.2	10
0	68895	6889.4	1
0	70645	7064.4	18
0	70789	7078.8	9
0	73139	7313.8	9
0	75615	7561.4	6
0	79685	7968.4	11
0	79767	7976.6	2
0	79893	7989.2	28
0	80785	8078.4	37
0	82365	8236.4	7
0	83697	8369.6	1
0	85395	8539.4	58
0	86459	8645.8	8
0	87213	8721.2	12
0	88175	8817.4	6
0	88779	8877.8	13
0	90695	9069.4	5
0	93231	9323	17
0	93293	9329.2	3
0	95411	9541	1
0	97789	9778.8	1
0	99803	9980.2	7
0	101089	10108.8	5
0	101109	10110.8	17
0	103783	10378.2	15
0	105867	10586.6	29
0	106495	10649.4	15
0	107385	10738.4	4
0	108901	10890	14
0	109883	10988.2	36
0	110753	11075.2	3
0	111277	11127.6	2
0	114369	11436.8	1
0	114499	11449.8	22
0	115367	11536.6	1
0	117429	11742.8	9
0	117935	11793.4	57
0	118649	11864.8	3
0	119317	11931.6	8
0	120169	12016.8	6
0	120789	12078.8	2
0	121485	12148.4	5
0	122601	12260	1
0	124185	12418.4	3
0	126041	12604	47
0	127005	12700.4	4
0	128165	12816.4	22
0	133173	13317.2	6
0	135305	13530.4	20
0	138309	13830.8	69
0	139029	13902.8	37
0	139223	13922.2	183
0	140441	14044	6
0	141061	14106	9
0	143347	14334.6	93
0	143511	14351	1
0	145579	14557.8	1
0	148029	14802.8	88
0	152405	15240.4	4
0	154629	15462.8	1
0	156641	15664	17
0	158347	15834.6	1
0	158399	15839.8	20
0	162469	16246.8	11
0	162971	16297	11
0	163389	16338.8	44
0	164393	16439.2	39
0	164553	16455.2	18
0	165891	16589	15
0	167127	16712.6	104
0	167607	16760.6	2
0	170479	17047.8	33
0	171759	17175.8	58
0	172447	17244.6	2
0	172709	17270.8	12
0	177243	17724.2	4
0	178019	17801.8	2
0	178107	17810.6	7
0	179537	17953.6	84
0	180641	18064	103
0	181779	18177.8	35
0	182963	18296.2	30
0	184405	18440.4	12
0	185307	18530.6	4
0	188235	18823.4	33
0	188479	18847.8	16
0	188599	18859.8	41
0	189521	18952	44
0	190157	19015.6	40
0	190691	19069	1
0	191379	19137.8	2
0	192665	19266.4	11
0	192679	19267.8	1
0	193379	19337.8	8
0	195223	19522.2	9
0	195371	19537	4
0	196695	19669.4	44
0	197997	19799.6	28
0	199795	19979.4	2
0	203605	20360.4	24
0	204931	20493	34
0	205407	20540.6	29
0	207995	20799.4	6
0	209379	20937.8	22
0	212105	21210.4	5
0	216031	21603	2
0	217019	21701.8	1
0	218109	21810.8	4
0	218923	21892.2	1
0	221297	22129.6	2
0	222151	22215	1
0	224215	22421.4	13
0	226937	22693.6	45
0	230447	23044.6	16
0	232465	23246.4	8
0	233067	23306.6	1
0	235595	23559.4	35
0	235889	23588.8	2
0	237325	23732.4	12
0	238279	23827.8	14
0	239243	23924.2	18
0	239459	23945.8	1
0	241411	24141	1
0	242007	24200.6	3
0	242227	24222.6	10
0	245161	24516	20
0	249245	24924.4	1
0	250153	25015.2	8
0	251133	25113.2	2
0	251755	25175.4	106
0	256079	25607.8	1
0	257473	25747.2	5
0	257811	25781	12
0	260279	26027.8	34
0	262697	26269.6	7
0	267945	26794.4	10
0	268213	26821.2	4
0	268937	26893.6	9
0	271313	27131.2	3
0	271377	27137.6	21
0	276413	27641.2	5
0	278883	27888.2	46
0	281113	28111.2	43
0	281435	28143.4	4
0	286145	28614.4	12
0	287767	28776.6	19
0	288329	28832.8	36
0	288449	28844.8	1
0	288539	28853.8	34
0	290045	29004.4	4
0	290067	29006.6	4
0	290143	29014.2	1
0	290495	29049.4	2
0	291561	29156	25
0	291829	29182.8	1
0	293141	29314	7
0	293639	29363.8	29
0	293717	29371.6	25
0	293901	29390	139
0	297157	29715.6	46
0	297417	29741.6	26
0	297823	29782.2	2
0	299031	29903	76
0	301591	30159	91
0	301733	30173.2	2
0	302053	30205.2	83
0	303371	30337	38
0	303511	30351	2
0	303921	30392	3
0	305025	30502.4	3
0	305581	30558	9
0	310165	31016.4	2
0	311705	31170.4	2
0	311911	31191	12
0	313851	31385	6
0	314839	31483.8	14
0	314991	31499	17
0	319461	31946	22
0	319745	31974.4	2
0	320043	32004.2	10
0	322201	32220	25
0	322883	32288.2	2
0	325189	32518.8	14
0	329683	32968.2	6
0	329801	32980	2
0	330959	33095.8	32
0	332553	33255.2	1
0	332747	33274.6	18
0	334535	33453.4	29
0	335287	33528.6	24
0	338143	33814.2	90
0	339419	33941.8	39
0	340745	34074.4	35
0	342087	34208.6	10
0	342941	34294	3
0	343479	34347.8	13
0	344579	34457.8	1
0	347305	34730.4	4
0	347793	34779.2	1
0	347829	34782.8	35
0	348321	34832	5
0	349307	34930.6	83
0	350585	35058.4	5
0	351459	35145.8	1
0	352531	35253	39
0	352857	35285.6	1
0	352995	35299.4	38
0	354435	35443.4	1
0	355185	35518.4	19
0	355461	35546	4
0	355665	35566.4	23
0	356157	35615.6	13
0	356435	35643.4	4
0	357133	35713.2	2
0	359681	35968	19
0	360181	36018	3
0	360649	36064.8	69
0	361235	36123.4	10
0	363525	36352.4	26
0	365611	36561	54
0	367713	36771.2	3
0	368761	36876	21
0	368899	36889.8	6
0	372267	37226.6	83
0	373261	37326	1
0	376143	37614.2	10
0	376337	37633.6	1
0	377197	37719.6	9
0	377907	37790.6	27
0	378533	37853.2	29
0	378975	37897.4	1
0	379641	37964	86
0	379931	37993	3
0	382005	38200.4	30
0	382613	38261.2	1
0	382741	38274	11
0	383275	38327.4	1
0	386225	38622.4	15
0	387329	38732.8	29
0	388293	38829.2	8
0	390613	39061.2	4
0	390907	39090.6	13
0	391831	39183	8
0	392473	39247.2	22
0	393649	39364.8	25
0	394531	39453	3
0	397683	39768.2	1
0	397741	39774	2
0	397943	39794.2	2
0	399367	39936.6	8
0	400167	40016.6	19
0	401495	40149.4	3
0	403617	40361.6	1
0	406303	40630.2	1
0	406519	40651.8	1
0	408499	40849.8	80
0	409485	40948.4	2
0	414189	41418.8	3
0	415021	41502	1
0	417321	41732	28
0	417449	41744.8	2
0	418523	41852.2	9
0	418733	41873.2	24
0	418861	41886	53
0	419581	41958	3
0	423719	42371.8	70
0	424173	42417.2	23
0	424487	42448.6	1
0	424555	42455.4	3
0	426955	42695.4	7
0	427539	42753.8	55
0	427591	42759	25
0	428601	42860	2
0	431015	43101.4	13
0	431593	43159.2	4
0	435653	43565.2	32
0	435901	43590	2
0	437605	43760.4	17
0	439121	43912	16
0	439461	43946	11
0	440151	44015	32
0	442951	44295	4
0	443091	44309	41
0	444087	44408.6	2
0	444219	44421.8	10
0	445181	44518	32
0	446731	44673	65
0	446921	44692	9
0	447731	44773	17
0	449509	44950.8	11
0	450241	45024	90
0	450521	45052	19
0	451437	45143.6	136
0	453529	45352.8	13
0	453729	45372.8	11
0	455693	45569.2	1
0	455849	45584.8	29
0	457701	45770	3
0	458383	45838.2	23
0	461701	46170	3
0	465673	46567.2	1
0	466645	46664.4	8
0	468463	46846.2	2
0	469113	46911.2	4
0	469257	46925.6	11
0	470003	47000.2	2
0	470727	47072.6	54
0	471019	47101.8	47
0	475237	47523.6	5
0	475291	47529	40
0	477709	47770.8	1
0	480133	48013.2	1
0	480691	48069	88
0	480951	48095	8
0	487643	48764.2	23
0	491415	49141.4	3
0	492299	49229.8	8
0	494603	49460.2	16
0	495215	49521.4	40
0	497027	49702.6	1
0	497139	49713.8	1
0	498693	49869.2	1
0	499733	49973.2	15
0	500481	50048	26
0	501337	50133.6	4
0	503573	50357.2	74
0	504689	50468.8	35
0	506739	50673.8	8
0	507157	50715.6	27
0	507637	50763.6	3
0	507783	50778.2	6
0	508547	50854.6	19
0	509471	50947	54
0	513073	51307.2	6
0	513589	51358.8	34
0	514173	51417.2	58
0	514433	51443.2	48
0	514731	51473	38
0	515315	51531.4	8
0	516755	51675.4	2
0	517021	51702	23
0	517203	51720.2	10
0	518281	51828	22
0	518503	51850.2	2
0	518693	51869.2	3
0	521325	52132.4	4
0	521805	52180.4	8
0	522467	52246.6	20
0	523795	52379.4	13
0	523981	52398	5
0	524481	52448	2
0	531791	53179	12
0	534093	53409.2	38
0	535737	53573.6	5
0	537423	53742.2	9
0	539227	53922.6	2
0	539245	53924.4	6
0	539939	53993.8	2
0	540637	54063.6	5
0	541465	54146.4	3
0	542747	54274.6	1
0	543219	54321.8	145
0	543729	54372.8	1
0	544869	54486.8	93
0	546099	54609.8	61
0	548305	54830.4	2
0	549235	54923.4	1
0	552879	55287.8	4
0	553377	55337.6	7
0	555819	55581.8	217
0	558295	55829.4	103
0	558491	55849	3
0	559283	55928.2	13
0	559581	55958	25
0	559971	55997	12
0	562543	56254.2	6
0	563313	56331.2	131
0	563315	56331.4	1
0	563567	56356.6	2
0	564697	56469.6	3
0	567635	56763.4	9
0	568431	56843	70
0	568589	56858.8	1
0	571163	57116.2	24
0	576337	57633.6	70
0	576787	57678.6	1
0	579063	57906.2	6
0	582893	58289.2	36
0	585855	58585.4	1
0	593639	59363.8	56
0	596293	59629.2	15
0	598769	59876.8	25
0	600347	60034.6	75
0	600599	60059.8	53
0	601949	60194.8	14
0	605417	60541.6	26
0	606735	60673.4	9
0	606893	60689.2	15
0	608873	60887.2	4
0	609573	60957.2	19
0	611145	61114.4	1
0	613691	61369	27
0	614357	61435.6	13
0	617865	61786.4	49
0	618435	61843.4	4
0	618527	61852.6	3
0	621217	62121.6	1
0	621843	62184.2	1
0	621965	62196.4	95
0	622339	62233.8	16
0	622735	62273.4	55
0	622751	62275	8
0	623109	62310.8	1
0	624317	62431.6	27
0	625259	62525.8	13
0	625367	62536.6	39
0	627447	62744.6	35
0	636143	63614.2	2
0	636969	63696.8	2
0	640523	64052.2	14
0	641525	64152.4	1
0	641743	64174.2	3
0	646451	64645	45
0	648465	64846.4	4
0	648825	64882.4	12
0	649271	64927	8
0	650639	65063.8	12
0	651681	65168	18
0	653003	65300.2	4
0	653331	65333	1
0	654973	65497.2	8
0	655035	65503.4	9
0	655789	65578.8	3
0	657331	65733	10
0	658825	65882.4	97
0	660829	66082.8	1
0	660945	66094.4	23
0	661181	66118	1
0	661231	66123	2
0	661849	66184.8	99
0	663121	66312	38
0	663139	66313.8	1
0	663457	66345.6	2
0	666679	66667.8	55
0	667969	66796.8	35
0	669809	66980.8	16
0	670069	67006.8	28
0	670951	67095	8
0	671317	67131.6	2
0	673547	67354.6	12
0	673993	67399.2	3
0	675103	67510.2	3
0	675659	67565.8	7
0	678413	67841.2	3
0	678549	67854.8	50
0	678793	67879.2	11
0	679549	67954.8	4
0	682187	68218.6	4
0	683083	68308.2	5
0	683267	68326.6	10
0	684175	68417.4	1
0	685703	68570.2	6
0	687191	68719	6
0	687599	68759.8	31
0	688267	68826.6	8
0	689931	68993	11
0	690179	69017.8	20
0	692897	69289.6	1
0	694723	69472.2	1
0	695011	69501	8
0	697787	69778.6	39
0	698119	69811.8	24
0	701215	70121.4	2
0	701861	70186	1
0	702381	70238	8
0	703145	70314.4	2
0	703893	70389.2	6
0	704707	70470.6	1
0	704985	70498.4	45
0	704997	70499.6	7
0	705177	70517.6	4
0	706059	70605.8	11
0	708867	70886.6	18
0	712407	71240.6	19
0	713961	71396	1
0	714867	71486.6	5
0	715421	71542	2
0	715461	71546	14
0	715903	71590.2	1
0	717701	71770	2
0	718001	71800	20
0	719465	71946.4	21
0	719583	71958.2	26
0	719975	71997.4	1
0	720175	72017.4	27
0	720811	72081	25
0	721303	72130.2	10
0	725249	72524.8	16
0	725383	72538.2	29
0	727085	72708.4	4
0	727899	72789.8	4
0	728819	72881.8	8
0	730999	73099.8	6
0	734459	73445.8	1
0	734601	73460	6
0	736241	73624	1
0	736783	73678.2	67
0	736937	73693.6	21
0	738509	73850.8	17
0	740339	74033.8	3
0	740495	74049.4	2
0	742251	74225	3
0	742707	74270.6	10
0	743651	74365	4
0	743793	74379.2	78
0	743919	74391.8	1
0	747921	74792	1
0	749905	74990.4	10
0	750077	75007.6	8
0	750519	75051.8	6
0	751583	75158.2	1
0	754733	75473.2	3
0	756057	75605.6	1
0	756167	75616.6	2
0	756735	75673.4	6
0	757071	75707	47
0	757325	75732.4	48
0	761517	76151.6	3
0	763635	76363.4	2
0	763849	76384.8	32
0	766213	76621.2	48
0	766907	76690.6	116
0	767033	76703.2	4
0	768913	76891.2	74
0	768995	76899.4	19
0	771453	77145.2	26
0	772303	77230.2	8
0	772917	77291.6	6
0	773575	77357.4	12
0	774369	77436.8	1
0	775089	77508.8	2
0	775151	77515	29
0	775241	77524	26
0	775255	77525.4	12
0	777819	77781.8	1
0	779659	77965.8	1
0	782353	78235.2	2
0	785333	78533.2	10
0	789413	78941.2	112
0	789617	78961.6	26
0	790389	79038.8	49
0	790423	79042.2	13
0	791271	79127	38
0	791909	79190.8	20
0	793391	79339	32
0	793641	79364	88
0	794277	79427.6	64
0	794739	79473.8	35
0	795757	79575.6	2
0	797001	79700	12
0	800011	80001	1
0	800215	80021.4	15
0	801659	80165.8	1
0	803579	80357.8	14
0	805567	80556.6	4
0	808863	80886.2	18
0	812441	81244	22
0	812877	81287.6	3
0	813171	81317	16
0	813741	81374	5
0	813753	81375.2	6
0	817141	81714	1
0	817627	81762.6	4
0	819655	81965.4	6
0	820269	82026.8	1
0	820541	82054	15
0	824057	82405.6	10
0	825555	82555.4	19
0	825739	82573.8	1
0	827125	82712.4	2
0	828543	82854.2	1
0	831087	83108.6	1
0	833159	83315.8	36
0	833239	83323.8	1
0	835917	83591.6	1
0	835965	83596.4	11
0	836185	83618.4	41
0	839819	83981.8	13
0	840167	84016.6	10
0	843113	84311.2	41
0	843223	84322.2	3
0	845463	84546.2	120
0	845687	84568.6	13
0	846483	84648.2	67
0	850173	85017.2	23
0	852461	85246	16
0	853699	85369.8	7
0	854465	85446.4	34
0	856003	85600.2	1
0	857709	85770.8	4
0	857923	85792.2	7
0	859765	85976.4	1
0	860181	86018	10
0	862079	86207.8	8
0	862735	86273.4	16
0	863755	86375.4	7
0	869189	86918.8	1
0	869411	86941	19
0	870193	87019.2	102
0	870639	87063.8	20
0	875093	87509.2	23
0	876071	87607	3
0	877275	87727.4	16
0	877791	87779	9
0	878277	87827.6	39
0	880005	88000.4	20
0	880701	88070	18
0	880921	88092	1
0	881087	88108.6	2
0	881343	88134.2	2
0	883621	88362	12
0	884241	88424	1
0	885521	88552	37
0	887355	88735.4	2
0	888053	88805.2	17
0	888191	88819	25
0	888367	88836.6	5
0	890201	89020	20
0	891219	89121.8	40
0	893475	89347.4	18
0	895249	89524.8	76
0	896233	89623.2	2
0	898977	89897.6	3
0	899459	89945.8	10
0	901479	90147.8	26
0	901579	90157.8	98
0	901957	90195.6	1
0	901959	90195.8	1
0	906119	90611.8	5
0	907719	90771.8	1
0	908143	90814.2	1
0	911133	91113.2	1
0	918983	91898.2	53
0	919357	91935.6	3
0	922743	92274.2	3
0	924913	92491.2	77
0	926339	92633.8	9
0	932397	93239.6	2
0	934443	93444.2	2
0	935915	93591.4	54
0	938601	93860	4
0	939755	93975.4	2
0	942791	94279	16
0	945427	94542.6	45
0	946327	94632.6	5
0	946777	94677.6	4
0	947201	94720	6
0	948787	94878.6	32
0	949543	94954.2	28
0	949817	94981.6	2
0	950455	95045.4	30
0	953453	95345.2	43
0	954979	95497.8	14
0	955445	95544.4	18
0	958057	95805.6	9
0	959013	95901.2	5
0	961421	96142	2
0	962505	96250.4	15
0	963633	96363.2	1
0	966039	96603.8	30
0	966047	96604.6	7
0	966877	96687.6	16
0	966953	96695.2	1
0	967683	96768.2	13
0	968033	96803.2	4
0	968743	96874.2	1
0	968939	96893.8	2
0	971257	97125.6	8
0	978479	97847.8	7
0	978883	97888.2	36
0	979271	97927	12
0	983833	98383.2	41
0	984047	98404.6	10
0	984293	98429.2	30
0	985007	98500.6	9
0	988349	98834.8	1
0	988437	98843.6	52
0	989443	98944.2	59
0	990235	99023.4	26
0	992189	99218.8	30
0	992305	99230.4	64
0	993685	99368.4	1
0	994111	99411	18
0	994613	99461.2	14
0	995313	99531.2	28
0	995791	99579	1
0	996405	99640.4	17
0	997739	99773.8	34
0	999225	99922.4	15
0	999987	99998.6	6
0	1002423	100242.2	36
0	1003287	100328.6	11
0	1005281	100528	45
0	1005905	100590.4	17
0	1007693	100769.2	11
0	1013969	101396.8	6
0	1018097	101809.6	9
0	1022309	102230.8	33
0	1022563	102256.2	5
0	1023293	102329.2	1
0	1024067	102406.6	26
0	1025789	102578.8	4
0	1026867	102686.6	14
0	1027881	102788	44
0	1029629	102962.8	1
0	1032161	103216	97
0	1033641	103364	10
0	1035761	103576	1
0	1036201	103620	1
0	1036957	103695.6	14
0	1037631	103763	42
0	1039473	103947.2	17
0	1039689	103968.8	3
0	1040433	104043.2	1
0	1040503	104050.2	12
0	1040633	104063.2	24
0	1042165	104216.4	3
0	1043789	104378.8	17
0	1043865	104386.4	8
0	1044287	104428.6	122
0	1044345	104434.4	47
0	1045413	104541.2	9
0	1047925	104792.4	7
0	1048495	104849.4	63
0	1048529	104852.8	1
0	1049371	104937	23
0	1050413	105041.2	1
0	1051099	105109.8	7
0	1051171	105117	2
0	1051263	105126.2	19
0	1054733	105473.2	28
0	1055897	105589.6	17
0	1056235	105623.4	17
0	1057445	105744.4	56
0	1057721	105772	54
0	1057881	105788	27
0	1060825	106082.4	6
0	1061919	106191.8	4
0	1062171	106217	16
0	1063733	106373.2	1
0	1064913	106491.2	3
0	1065455	106545.4	30
0	1066957	106695.6	8
0	1067215	106721.4	7
0	1067249	106724.8	1
0	1067841	106784	81
0	1071755	107175.4	36
0	1072583	107258.2	3
0	1076095	107609.4	15
0	1078191	107819	17
0	1079291	107929	22
0	1079471	107947	2
0	1079545	107954.4	18
0	1080915	108091.4	23
0	1081801	108180	1
0	1082599	108259.8	19
0	1086165	108616.4	15
0	1086481	108648	8
0	1086923	108692.2	1
0	1088929	108892.8	20
0	1089501	108950	15
0	1094947	109494.6	5
0	1095551	109555	1
0	1095589	109558.8	2
0	1096133	109613.2	1
0	1096997	109699.6	4
0	1099973	109997.2	53
0	1101817	110181.6	1
0	1103109	110310.8	3
0	1103827	110382.6	10
0	1113221	111322	17
0	1113257	111325.6	2
0	1115989	111598.8	9
0	1117481	111748	152
0	1120413	112041.2	1
0	1121865	112186.4	21
0	1122313	112231.2	2
0	1122763	112276.2	8
0	1122929	112292.8	6
0	1123861	112386	8
0	1123887	112388.6	7
0	1126673	112667.2	6
0	1126765	112676.4	7
0	1126889	112688.8	3
0	1127355	112735.4	17
0	1129605	112960.4	4
0	1131613	113161.2	60
0	1133915	113391.4	8
0	1134923	113492.2	5
0	1135305	113530.4	19
0	1135383	113538.2	6
0	1139419	113941.8	39
0	1139467	113946.6	7
0	1139823	113982.2	16
0	1140017	114001.6	4
0	1143339	114333.8	2
0	1144681	114468	5
0	1144773	114477.2	8
0	1144887	114488.6	1
0	1145295	114529.4	24
0	1145913	114591.2	24
0	1146131	114613	1
0	1148151	114815	49
0	1148827	114882.6	4
0	1148865	114886.4	27
0	1149821	114982	19
0	1150489	115048.8	11
0	1152103	115210.2	22
0	1153675	115367.4	12
0	1155043	115504.2	46
0	1155053	115505.2	5
0	1156853	115685.2	8
0	1157757	115775.6	6
0	1158363	115836.2	7
0	1159829	115982.8	67
0	1160019	116001.8	1
0	1160367	116036.6	13
0	1161897	116189.6	1
0	1162149	116214.8	10
0	1163691	116369	16
0	1169959	116995.8	5
0	1172195	117219.4	2
0	1172569	117256.8	29
0	1176109	117610.8	1
0	1176201	117620	26
0	1176637	117663.6	78
0	1178421	117842	44
0	1180253	118025.2	1
0	1184953	118495.2	17
0	1188605	118860.4	1
0	1189745	118974.4	4
0	1191745	119174.4	59
0	1192171	119217	1
0	1193031	119303	17
0	1194923	119492.2	1
0	1195201	119520	1
0	1196645	119664.4	42
0	1197569	119756.8	4
0	1199509	119950.8	4
0	1200223	120022.2	6
0	1201105	120110.4	4
0	1201949	120194.8	16
0	1202807	120280.6	12
0	1203077	120307.6	1
0	1203189	120318.8	8
0	1203281	120328	3
0	1205011	120501	2
0	1205777	120577.6	5
0	1205917	120591.6	14
0	1206813	120681.2	11
0	1207231	120723	51
0	1213717	121371.6	1
0	1213891	121389	11
0	1214293	121429.2	1
0	1214977	121497.6	1
0	1216381	121638	2
0	1216541	121654	23
0	1216653	121665.2	29
0	1216733	121673.2	1
0	1218189	121818.8	6
0	1219331	121933	8
0	1219779	121977.8	27
0	1220935	122093.4	1
0	1221909	122190.8	29
0	1222967	122296.6	7
0	1223187	122318.6	8
0	1225815	122581.4	22
0	1226159	122615.8	6
0	1228289	122828.8	35
0	1230095	123009.4	9
0	1230253	123025.2	14
0	1231197	123119.6	16
0	1232651	123265	2
0	1234569	123456.8	36
0	1237113	123711.2	4
0	1237487	123748.6	3
0	1238765	123876.4	33
0	1243749	124374.8	4
0	1244569	124456.8	7
0	1245299	124529.8	2
0	1245347	124534.6	23
0	1245415	124541.4	24
0	1245841	124584	13
0	1246947	124694.6	10
0	1247535	124753.4	119
0	1247619	124761.8	9
0	1248565	124856.4	3
0	1250233	125023.2	1
0	1251269	125126.8	3
0	1254113	125411.2	34
0	1259221	125922	31
0	1260901	126090	1
0	1261653	126165.2	94
0	1262213	126221.2	20
0	1262371	126237	6
0	1262469	126246.8	3
0	1262563	126256.2	9
0	1264281	126428	22
0	1269993	126999.2	34
0	1271517	127151.6	6
0	1271677	127167.6	6
0	1273115	127311.4	39
0	1274615	127461.4	2
0	1276745	127674.4	7
0	1277951	127795	19
0	1278291	127829	80
0	1279011	127901	37
0	1279839	127983.8	7
0	1279905	127990.4	1
0	1280685	128068.4	1
0	1281205	128120.4	65
0	1281885	128188.4	1
0	1281929	128192.8	10
0	1282071	128207	5
0	1285409	128540.8	1
0	1287845	128784.4	8
0	1288035	128803.4	11
0	1288837	128883.6	6
0	1289627	128962.6	64
0	1290241	129024	1
0	1292611	129261	25
0	1293155	129315.4	5
0	1293333	129333.2	61
0	1295401	129540	3
0	1297131	129713	125
0	1297441	129744	41
0	1297917	129791.6	5
0	1298961	129896	1
0	1304969	130496.8	6
0	1305985	130598.4	8
0	1307507	130750.6	3
0	1309843	130984.2	2
0	1310229	131022.8	1
0	1312815	131281.4	8
0	1314221	131422	13
0	1314417	131441.6	1
0	1315549	131554.8	5
0	1315787	131578.6	29
0	1316157	131615.6	31
0	1316689	131668.8	1
0	1316945	131694.4	1
0	1317851	131785	2
0	1320205	132020.4	52
0	1322819	132281.8	48
0	1326451	132645	3
0	1326609	132660.8	14
0	1327437	132743.6	8
0	1330979	133097.8	2
0	1331107	133110.6	1
0	1331813	133181.2	18
0	1332239	133223.8	7
0	1332241	133224	1
0	1332287	133228.6	14
0	1333715	133371.4	20
0	1335235	133523.4	1
0	1336033	133603.2	22
0	1338247	133824.6	8
0	1340985	134098.4	1
0	1341885	134188.4	2
0	1343117	134311.6	5
0	1344413	134441.2	1
0	1345001	134500	20
0	1348007	134800.6	98
0	1350105	135010.4	12
0	1351037	135103.6	28
0	1351635	135163.4	21
0	1354805	135480.4	57
0	1354833	135483.2	11
0	1355555	135555.4	1
0	1356059	135605.8	4
0	1360045	136004.4	8
0	1363615	136361.4	27
0	1364233	136423.2	3
0	1366037	136603.6	14
0	1367855	136785.4	2
0	1369923	136992.2	9
0	1372197	137219.6	34
0	1372311	137231	7
0	1372937	137293.6	2
0	1376859	137685.8	4
0	1377873	137787.2	1
0	1378403	137840.2	56
0	1379803	137980.2	3
0	1382079	138207.8	9
0	1383809	138380.8	14
0	1384047	138404.6	44
0	1384543	138454.2	7
0	1385535	138553.4	20
0	1386987	138698.6	14
0	1388061	138806	1
0	1391175	139117.4	13
0	1393115	139311.4	6
0	1393195	139319.4	4
0	1393659	139365.8	1
0	1394827	139482.6	20
0	1395039	139503.8	11
0	1395567	139556.6	4
0	1397065	139706.4	11
0	1398861	139886	7
0	1399005	139900.4	9
0	1399395	139939.4	1
0	1400037	140003.6	61
0	1400747	140074.6	1
0	1401153	140115.2	1
0	1404723	140472.2	42
0	1408571	140857	2
0	1408665	140866.4	48
0	1410313	141031.2	22
0	1411965	141196.4	8
0	1412235	141223.4	1
0	1414667	141466.6	6
0	1414929	141492.8	1
0	1415601	141560	16
0	1415951	141595	81
0	1418341	141834	4
0	1418521	141852	28
0	1422105	142210.4	7
0	1423307	142330.6	46
0	1424857	142485.6	4
0	1425217	142521.6	11
0	1426113	142611.2	12
0	1426263	142626.2	18
0	1429725	142972.4	9
0	1430691	143069	21
0	1431783	143178.2	6
0	1431829	143182.8	2
0	1433101	143310	1
0	1434745	143474.4	16
0	1435823	143582.2	11
0	1436371	143637	63
0	1437395	143739.4	8
0	1439455	143945.4	1
0	1439969	143996.8	4
0	1440049	144004.8	24
0	1441247	144124.6	11
0	1441813	144181.2	15
0	1444083	144408.2	6
0	1444307	144430.6	7
0	1445345	144534.4	1
0	1447051	144705	14
0	1447059	144705.8	5
0	1449053	144905.2	2
0	1451975	145197.4	14
0	1452255	145225.4	7
0	1452671	145267	1
0	1452973	145297.2	16
0	1454055	145405.4	39
0	1454547	145454.6	12
0	1454863	145486.2	3
0	1460561	146056	17
0	1461509	146150.8	2
0	1461725	146172.4	2
0	1462031	146203	34
0	1464135	146413.4	9
0	1464847	146484.6	1
0	1467801	146780	55
0	1467963	146796.2	3
0	1470855	147085.4	2
0	1471151	147115	4
0	1471559	147155.8	8
0	1473447	147344.6	7
0	1474277	147427.6	29
0	1475199	147519.8	2
0	1475661	147566	16
0	1477043	147704.2	7
0	1477099	147709.8	12
0	1479917	147991.6	11
0	1481725	148172.4	45
0	1483953	148395.2	25
0	1484481	148448	6
0	1484857	148485.6	59
0	1485047	148504.6	1
0	1485053	148505.2	1
0	1486263	148626.2	3
0	1488893	148889.2	1
0	1490373	149037.2	4
0	1492663	149266.2	2
0	1494529	149452.8	3
0	1494907	149490.6	1
0	1496199	149619.8	4
0	1496247	149624.6	23
0	1498939	149893.8	47
0	1501329	150132.8	23
0	1503359	150335.8	12
0	1503655	150365.4	40
0	1504081	150408	2
0	1504805	150480.4	45
0	1504897	150489.6	1
0	1506305	150630.4	14
0	1506733	150673.2	2
0	1507583	150758.2	3
0	1510449	151044.8	2
0	1511447	151144.6	9
0	1512729	151272.8	116
0	1512809	151280.8	19
0	1513075	151307.4	2
0	1513187	151318.6	1
0	1513297	151329.6	1
0	1514317	151431.6	1
0	1514791	151479	31
0	1517405	151740.4	5
0	1522937	152293.6	24
0	1523889	152388.8	7
0	1527297	152729.6	18
0	1529641	152964	23
0	1530047	153004.6	3
0	1530709	153070.8	38
0	1532247	153224.6	2
0	1534147	153414.6	3
0	1534311	153431	6
0	1534937	153493.6	1
0	1535837	153583.6	6
0	1536411	153641	7
0	1536587	153658.6	32
0	1540843	154084.2	11
0	1543511	154351	1
0	1546047	154604.6	34
0	1546479	154647.8	22
0	1549397	154939.6	1
0	1549549	154954.8	3
0	1550845	155084.4	2
0	1551417	155141.6	131
0	1554057	155405.6	1
0	1554179	155417.8	4
0	1555465	155546.4	20
0	1555997	155599.6	4
0	1556987	155698.6	2
0	1559645	155964.4	6
0	1561013	156101.2	150
0	1561297	156129.6	18
0	1563171	156317	7
0	1565193	156519.2	1
0	1569221	156922	2
0	1570643	157064.2	5
0	1572639	157263.8	17
0	1573593	157359.2	11
0	1575735	157573.4	9
0	1579245	157924.4	7
0	1580791	158079	2
0	1581195	158119.4	44
0	1581379	158137.8	6
0	1583253	158325.2	11
0	1583329	158332.8	24
0	1583559	158355.8	15
0	1584431	158443	52
0	1586009	158600.8	25
0	1586057	158605.6	3
0	1586223	158622.2	1
0	1587005	158700.4	13
0	1587019	158701.8	10
0	1587141	158714	38
0	1588625	158862.4	1
0	1588679	158867.8	9
0	1589735	158973.4	11
0	1589877	158987.6	92
0	1591117	159111.6	1
0	1591539	159153.8	1
0	1592579	159257.8	20
0	1594695	159469.4	16
0	1595937	159593.6	3
0	1598101	159810	134
0	1598455	159845.4	12
0	1598833	159883.2	13
0	1598863	159886.2	2
0	1599395	159939.4	39
0	1602307	160230.6	24
0	1603543	160354.2	4
0	1603709	160370.8	7
0	1603975	160397.4	53
0	1606419	160641.8	5
0	1606675	160667.4	49
0	1607617	160761.6	30
0	1608267	160826.6	13
0	1608855	160885.4	24
0	1609891	160989	2
0	1612719	161271.8	28
0	1614937	161493.6	68
0	1615187	161518.6	7
0	1615395	161539.4	14
0	1619699	161969.8	38
0	1620235	162023.4	5
0	1621781	162178	9
0	1622711	162271	2
0	1623505	162350.4	32
0	1623639	162363.8	30
0	1624213	162421.2	24
0	1625689	162568.8	12
0	1626657	162665.6	1
0	1628393	162839.2	8
0	1630587	163058.6	12
0	1632779	163277.8	79
0	1633795	163379.4	14
0	1634483	163448.2	1
0	1635487	163548.6	3
0	1637129	163712.8	3
0	1638025	163802.4	83
0	1641209	164120.8	10
0	1641929	164192.8	58
0	1643815	164381.4	10
0	1645229	164522.8	1
0	1650311	165031	75
0	1652779	165277.8	6
0	1653107	165310.6	6
0	1653335	165333.4	35
0	1653719	165371.8	1
0	1657555	165755.4	91
0	1659259	165925.8	1
0	1660347	166034.6	31
0	1660647	166064.6	9
0	1662439	166243.8	18
0	1662625	166262.4	2
0	1663407	166340.6	11
0	1663729	166372.8	23
0	1666623	166662.2	9
0	1667043	166704.2	33
0	1667109	166710.8	1
0	1668031	166803	13
0	1668557	166855.6	8
0	1669253	166925.2	7
0	1669489	166948.8	2
0	1669539	166953.8	3
0	1670577	167057.6	68
0	1670845	167084.4	8
0	1673023	167302.2	6
0	1673111	167311	36
0	1673151	167315	17
0	1673355	167335.4	2
0	1674281	167428	2
0	1675617	167561.6	22
0	1676565	167656.4	14
0	1678153	167815.2	4
0	1678825	167882.4	3
0	1682939	168293.8	8
0	1684911	168491	1
0	1688273	168827.2	34
0	1688421	168842	37
0	1688457	168845.6	16
0	1689937	168993.6	45
0	1690221	169022	13
0	1693095	169309.4	2
0	1695015	169501.4	11
0	1695231	169523	4
0	1698449	169844.8	72
0	1699513	169951.2	38
0	1704649	170464.8	47
0	1705471	170547	100
0	1706521	170652	14
0	1706651	170665	1
0	1707831	170783	1
0	1710945	171094.4	16
0	1712159	171215.8	1
0	1716257	171625.6	7
0	1716569	171656.8	16
0	1717131	171713	1
0	1717657	171765.6	51
0	1718413	171841.2	4
0	1719979	171997.8	33
0	1721663	172166.2	14
0	1721683	172168.2	8
0	1722427	172242.6	13
0	1727051	172705	1
0	1727545	172754.4	40
0	1729917	172991.6	1
0	1730223	173022.2	155
0	1734447	173444.6	11
0	1734879	173487.8	1
0	1736951	173695	82
0	1738975	173897.4	1
0	1739691	173969	7
0	1740041	174004	35
0	1740929	174092.8	31
0	1742207	174220.6	2
0	1742653	174265.2	2
0	1744267	174426.6	77
0	1750561	175056	33
0	1750571	175057	3
0	1751091	175109	32
0	1755897	175589.6	15
0	1756043	175604.2	5
0	1756319	175631.8	1
0	1757885	175788.4	12
0	1758103	175810.2	2
0	1758153	175815.2	10