version 3
run General-118-20230611-05:41:41-416636
attr configname General
attr datetime 20230611-05:41:41
attr datetimef 20230611-054141
attr experiment General
attr inifile omnetpp.ini
attr iterationvars $N=91
attr iterationvarsd N=91
attr iterationvarsf N=91-
attr measurement $N=91
attr network LN
attr processid 416636
attr repetition 2
attr replication #2
attr resultdir results
attr runnumber 118
attr seedset 118
itervar N 91
config network LN
config sim-time-limit 250000s
config **.tic[*].hopCount.result-recording-modes +vector
config *.numCentralNodes 91
config repeat 4

vector 0 LN.lnd[1] hopCount:vector ETV
attr interpolationmode none
attr recordingmode vector
attr source arrival
attr title "hop count"
vector 1 LN.lnd[18] hopCount:vector ETV
attr interpolationmode none
attr recordingmode vector
attr source arrival
attr title "hop count"
vector 2 LN.lnd[9] hopCount:vector ETV
attr interpolationmode none
attr recordingmode vector
attr source arrival
attr title "hop count"
vector 3 LN.lnd[16] hopCount:vector ETV
attr interpolationmode none
attr recordingmode vector
attr source arrival
attr title "hop count"
vector 4 LN.lnd[8] hopCount:vector ETV
attr interpolationmode none
attr recordingmode vector
attr source arrival
attr title "hop count"
vector 5 LN.lnd[6] hopCount:vector ETV
attr interpolationmode none
attr recordingmode vector
attr source arrival
attr title "hop count"
vector 6 LN.lnd[13] hopCount:vector ETV
attr interpolationmode none
attr recordingmode vector
attr source arrival
attr title "hop count"
vector 7 LN.lnd[14] hopCount:vector ETV
attr interpolationmode none
attr recordingmode vector
attr source arrival
attr title "hop count"
vector 8 LN.lnd[2] hopCount:vector ETV
attr interpolationmode none
attr recordingmode vector
attr source arrival
attr title "hop count"
vector 9 LN.lnd[7] hopCount:vector ETV
attr interpolationmode none
attr recordingmode vector
attr source arrival
attr title "hop count"
vector 10 LN.lnd[4] hopCount:vector ETV
attr interpolationmode none
attr recordingmode vector
attr source arrival
attr title "hop count"
vector 11 LN.lnd[3] hopCount:vector ETV
attr interpolationmode none
attr recordingmode vector
attr source arrival
attr title "hop count"
vector 12 LN.lnd[19] hopCount:vector ETV
attr interpolationmode none
attr recordingmode vector
attr source arrival
attr title "hop count"
vector 13 LN.lnd[12] hopCount:vector ETV
attr interpolationmode none
attr recordingmode vector
attr source arrival
attr title "hop count"
vector 14 LN.lnd[15] hopCount:vector ETV
attr interpolationmode none
attr recordingmode vector
attr source arrival
attr title "hop count"
vector 15 LN.lnd[5] hopCount:vector ETV
attr interpolationmode none
attr recordingmode vector
attr source arrival
attr title "hop count"
vector 16 LN.lnd[10] hopCount:vector ETV
attr interpolationmode none
attr recordingmode vector
attr source arrival
attr title "hop count"
vector 17 LN.lnd[0] hopCount:vector ETV
attr interpolationmode none
attr recordingmode vector
attr source arrival
attr title "hop count"
vector 18 LN.lnd[11] hopCount:vector ETV
attr interpolationmode none
attr recordingmode vector
attr source arrival
attr title "hop count"
vector 19 LN.lnd[17] hopCount:vector ETV
attr interpolationmode none
attr recordingmode vector
attr source arrival
attr title "hop count"
0	23	2.2	22
0	333	33.2	9
0	543	54.2	114
0	561	56	17
0	1779	177.8	2
0	2471	247	386
0	2961	296	167
0	3407	340.6	2
0	4093	409.2	33
0	5731	573	147
0	12775	1277.4	30
0	13969	1396.8	394
0	15421	1542	5
0	17845	1784.4	36
0	19373	1937.2	118
0	19869	1986.8	37
0	21613	2161.2	49
0	22355	2235.4	53
0	23461	2346	92
0	25537	2553.6	24
0	25661	2566	80
0	26451	2645	152
0	32753	3275.2	28
0	33823	3382.2	70
0	34753	3475.2	51
0	37581	3758	21
0	37725	3772.4	6
0	42675	4267.4	49
0	42877	4287.6	189
0	44335	4433.4	40
0	45171	4517	22
0	46479	4647.8	5
0	47497	4749.6	31
0	50835	5083.4	34
0	51017	5101.6	39
0	54867	5486.6	149
0	57945	5794.4	21
0	59751	5975	201
0	61853	6185.2	71
0	62715	6271.4	279
0	63163	6316.2	94
0	65633	6563.2	35
0	66869	6686.8	27
0	67767	6776.6	2
0	68767	6876.6	7
0	71861	7186	241
0	72243	7224.2	35
0	75035	7503.4	59
0	75331	7533	119
0	76931	7693	110
0	77883	7788.2	222
0	80283	8028.2	361
0	83709	8370.8	37
0	84543	8454.2	3
0	84895	8489.4	61
0	85677	8567.6	3
0	87733	8773.2	28
0	88141	8814	19
0	94111	9411	279
0	95319	9531.8	72
0	107189	10718.8	173
0	110047	11004.6	17
0	110479	11047.8	76
0	112045	11204.4	80
0	112151	11215	12
0	113069	11306.8	157
0	121471	12147	42
0	125117	12511.6	65
0	127959	12795.8	192
0	128527	12852.6	7
0	129249	12924.8	22
0	129427	12942.6	29
0	129753	12975.2	73
0	130003	13000.2	26
0	131381	13138	85
0	133297	13329.6	32
0	133583	13358.2	149
0	135455	13545.4	54
0	136575	13657.4	20
0	137051	13705	24
0	137863	13786.2	15
0	138581	13858	169
0	140709	14070.8	15
0	140779	14077.8	2
0	140861	14086	32
0	141877	14187.6	207
0	145075	14507.4	11
0	146011	14601	137
0	149831	14983	49
0	153971	15397	505
0	154571	15457	174
0	155599	15559.8	92
0	156659	15665.8	380
0	161621	16162	3
0	164571	16457	27
0	168741	16874	25
0	172059	17205.8	21
0	173233	17323.2	74
0	173523	17352.2	12
0	173893	17389.2	56
0	176229	17622.8	13
0	176331	17633	26
0	176739	17673.8	21
0	177161	17716	47
0	177537	17753.6	85
0	179261	17926	146
0	180095	18009.4	72
0	180441	18044	16
0	181471	18147	104
0	186191	18619	84
0	188621	18862	18
0	189687	18968.6	51
0	189959	18995.8	188
0	192613	19261.2	51
0	199427	19942.6	87
0	199851	19985	82
0	200185	20018.4	19
0	201901	20190	77
0	202279	20227.8	44
0	202611	20261	90
0	204403	20440.2	46
0	206495	20649.4	199
0	206639	20663.8	27
0	207063	20706.2	93
0	208361	20836	140
0	208605	20860.4	8
0	209691	20969	140
0	211915	21191.4	5
0	214177	21417.6	24
0	214699	21469.8	155
0	216255	21625.4	8
0	216789	21678.8	135
0	218405	21840.4	20
0	218479	21847.8	60
0	218851	21885	46
0	220023	22002.2	5
0	220643	22064.2	72
0	223373	22337.2	35
0	233829	23382.8	98
0	234185	23418.4	68
0	234593	23459.2	131
0	236345	23634.4	84
0	237089	23708.8	116
0	237307	23730.6	52
0	239305	23930.4	3
0	239501	23950	149
0	240169	24016.8	166
0	240975	24097.4	309
0	242373	24237.2	70
0	243111	24311	9
0	244843	24484.2	4
0	250857	25085.6	80
0	251747	25174.6	347
0	251845	25184.4	55
0	252035	25203.4	77
0	252353	25235.2	9
0	256249	25624.8	32
0	256347	25634.6	82
0	259007	25900.6	9
0	262665	26266.4	60
0	263091	26309	52
0	263295	26329.4	15
0	263821	26382	18
0	264511	26451	75
0	267273	26727.2	41
0	267653	26765.2	3
0	268041	26804	198
0	268229	26822.8	116
0	269215	26921.4	12
0	272043	27204.2	113
0	275361	27536	159
0	275581	27558	124
0	277487	27748.6	3
0	277827	27782.6	313
0	277875	27787.4	46
0	278777	27877.6	2
0	280095	28009.4	5
0	282503	28250.2	8
0	285163	28516.2	7
0	287845	28784.4	140
0	290339	29033.8	111
0	291749	29174.8	5
0	291901	29190	99
0	292239	29223.8	38
0	293495	29349.4	89
0	294837	29483.6	10
0	295617	29561.6	6
0	295841	29584	98
0	296239	29623.8	19
0	296761	29676	3
0	298131	29813	175
0	298549	29854.8	20
0	299749	29974.8	131
0	299961	29996	181
0	300179	30017.8	27
0	301987	30198.6	1
0	304617	30461.6	201
0	310913	31091.2	9
0	312991	31299	52
0	313595	31359.4	55
0	316719	31671.8	158
0	316905	31690.4	6
0	317899	31789.8	59
0	319869	31986.8	4
0	320057	32005.6	13
0	320749	32074.8	145
0	320825	32082.4	60
0	321353	32135.2	6
0	321933	32193.2	4
0	323069	32306.8	237
0	324013	32401.2	8
0	325095	32509.4	14
0	325677	32567.6	261
0	325977	32597.6	54
0	326479	32647.8	385
0	326699	32669.8	46
0	327703	32770.2	91
0	327871	32787	63
0	328537	32853.6	352
0	330493	33049.2	24
0	336053	33605.2	4
0	336093	33609.2	15
0	338157	33815.6	19
0	338853	33885.2	2
0	339069	33906.8	3
0	339175	33917.4	104
0	339915	33991.4	9
0	345293	34529.2	98
0	345737	34573.6	40
0	345795	34579.4	3
0	346107	34610.6	5
0	346777	34677.6	168
0	348859	34885.8	249
0	349441	34944	36
0	350999	35099.8	38
0	353383	35338.2	5
0	353659	35365.8	56
0	356631	35663	2
0	357019	35701.8	121
0	357225	35722.4	107
0	358159	35815.8	23
0	360421	36042	139
0	361521	36152	40
0	361725	36172.4	189
0	364843	36484.2	8
0	366311	36631	60
0	367859	36785.8	38
0	370025	37002.4	18
0	370219	37021.8	111
0	371891	37189	86
0	372047	37204.6	108
0	372921	37292	57
0	373805	37380.4	5
0	377043	37704.2	6
0	379395	37939.4	33
0	381961	38196	205
0	382721	38272	126
0	382937	38293.6	202
0	383587	38358.6	271
0	384669	38466.8	42
0	384831	38483	29
0	386339	38633.8	106
0	389587	38958.6	41
0	389837	38983.6	71
0	390251	39025	5
0	391241	39124	119
0	392249	39224.8	134
0	392993	39299.2	19
0	393821	39382	19
0	394303	39430.2	55
0	394839	39483.8	34
0	395375	39537.4	75
0	396473	39647.2	118
0	396477	39647.6	3
0	396599	39659.8	109
0	397521	39752	108
0	399463	39946.2	79
0	400859	40085.8	139
0	402073	40207.2	4
0	406477	40647.6	1
0	407039	40703.8	171
0	408969	40896.8	20
0	411803	41180.2	4
0	412029	41202.8	101
0	413123	41312.2	33
0	415209	41520.8	8
0	416141	41614	43
0	417809	41780.8	51
0	419679	41967.8	104
0	420249	42024.8	103
0	421407	42140.6	257
0	424119	42411.8	24
0	425613	42561.2	126
0	425921	42592	183
0	429479	42947.8	122
0	431953	43195.2	168
0	433481	43348	95
0	436343	43634.2	255
0	436755	43675.4	82
0	437129	43712.8	148
0	438371	43837	44
0	438645	43864.4	77
0	438851	43885	14
0	439201	43920	161
0	439839	43983.8	15
0	443571	44357	135
0	443823	44382.2	80
0	444131	44413	304
0	444499	44449.8	201
0	444871	44487	66
0	445361	44536	117
0	448243	44824.2	70
0	449501	44950	99
0	449509	44950.8	6
0	452837	45283.6	266
0	463767	46376.6	2
0	466409	46640.8	42
0	468793	46879.2	47
0	473525	47352.4	119
0	475287	47528.6	69
0	478271	47827	50
0	481221	48122	40
0	482791	48279	94
0	484793	48479.2	49
0	487115	48711.4	32
0	487671	48767	137
0	488469	48846.8	80
0	490069	49006.8	5
0	490309	49030.8	99
0	490697	49069.6	6
0	491161	49116	4
0	491381	49138	12
0	491911	49191	140
0	492385	49238.4	34
0	493031	49303	60
0	493631	49363	45
0	497453	49745.2	2
0	497823	49782.2	27
0	497871	49787	15
0	499103	49910.2	31
0	499939	49993.8	54
0	500137	50013.6	29
0	500511	50051	29
0	502819	50281.8	7
0	503319	50331.8	251
0	503923	50392.2	64
0	505127	50512.6	7
0	505225	50522.4	79
0	506985	50698.4	11
0	507719	50771.8	10
0	507913	50791.2	97
0	509081	50908	106
0	509927	50992.6	223
0	512917	51291.6	21
0	516289	51628.8	1
0	517181	51718	8
0	517937	51793.6	16
0	518611	51861	50
0	524727	52472.6	2
0	528183	52818.2	135
0	528999	52899.8	23
0	531083	53108.2	149
0	532309	53230.8	7
0	534175	53417.4	25
0	535233	53523.2	106
0	535559	53555.8	37
0	536311	53631	75
0	537149	53714.8	7
0	539967	53996.6	145
0	540051	54005	48
0	540345	54034.4	158
0	542025	54202.4	12
0	544573	54457.2	90
0	547947	54794.6	270
0	549953	54995.2	10
0	550807	55080.6	2
0	551365	55136.4	87
0	551495	55149.4	91
0	553375	55337.4	107
0	553811	55381	47
0	554741	55474	124
0	556055	55605.4	128
0	559003	55900.2	52
0	559159	55915.8	56
0	560011	56001	267
0	560333	56033.2	7
0	560943	56094.2	35
0	561951	56195	125
0	563789	56378.8	23
0	566183	56618.2	392
0	566999	56699.8	181
0	567389	56738.8	158
0	569945	56994.4	24
0	570509	57050.8	236
0	571375	57137.4	30
0	571735	57173.4	3
0	572839	57283.8	143
0	576679	57667.8	147
0	582643	58264.2	30
0	583003	58300.2	52
0	584819	58481.8	17
0	585281	58528	178
0	587293	58729.2	4
0	587529	58752.8	16
0	588109	58810.8	351
0	590269	59026.8	210
0	592073	59207.2	63
0	592209	59220.8	57
0	593003	59300.2	160
0	594383	59438.2	19
0	594631	59463	147
0	594645	59464.4	10
0	595535	59553.4	137
0	596889	59688.8	60
0	600203	60020.2	46
0	600703	60070.2	24
0	601701	60170	9
0	604139	60413.8	168
0	604879	60487.8	109
0	608665	60866.4	58
0	612071	61207	9
0	612171	61217	70
0	612877	61287.6	54
0	613165	61316.4	58
0	615151	61515	100
0	618131	61813	38
0	618537	61853.6	143
0	618625	61862.4	65
0	619033	61903.2	17
0	620479	62047.8	13
0	620771	62077	115
0	623077	62307.6	74
0	624205	62420.4	115
0	625091	62509	75
0	627017	62701.6	16
0	629129	62912.8	54
0	629983	62998.2	3
0	630461	63046	7
0	631033	63103.2	38
0	631601	63160	20
0	633013	63301.2	47
0	634301	63430	36
0	636117	63611.6	75
0	638207	63820.6	17
0	639111	63911	5
0	640011	64001	186
0	640327	64032.6	13
0	640939	64093.8	75
0	641535	64153.4	114
0	641541	64154	2
0	642181	64218	325
0	642845	64284.4	21
0	643825	64382.4	394
0	645535	64553.4	52
0	646435	64643.4	227
0	646883	64688.2	190
0	646983	64698.2	3
0	647655	64765.4	33
0	648377	64837.6	11
0	648521	64852	5
0	649841	64984	171
0	651433	65143.2	134
0	651515	65151.4	3
0	652123	65212.2	4
0	652571	65257	24
0	654841	65484	120
0	657157	65715.6	80
0	659693	65969.2	108
0	663031	66303	28
0	664769	66476.8	198
0	666139	66613.8	188
0	667583	66758.2	45
0	670945	67094.4	20
0	673453	67345.2	58
0	674695	67469.4	85
0	676341	67634	214
0	677731	67773	95
0	678089	67808.8	15
0	678147	67814.6	14
0	680719	68071.8	79
0	680869	68086.8	102
0	683135	68313.4	48
0	684411	68441	12
0	686009	68600.8	58
0	687429	68742.8	14
0	689377	68937.6	55
0	692205	69220.4	43
0	692397	69239.6	135
0	693159	69315.8	23
0	694399	69439.8	174
0	695671	69567	17
0	699173	69917.2	202
0	699679	69967.8	111
0	700021	70002	87
0	700265	70026.4	6
0	701059	70105.8	13
0	701177	70117.6	41
0	703189	70318.8	127
0	705999	70599.8	19
0	707449	70744.8	338
0	707667	70766.6	59
0	709573	70957.2	62
0	710713	71071.2	82
0	711767	71176.6	21
0	711809	71180.8	12
0	712719	71271.8	54
0	713989	71398.8	7
0	714559	71455.8	45
0	718179	71817.8	76
0	720401	72040	246
0	721517	72151.6	72
0	722543	72254.2	26
0	724841	72484	31
0	727641	72764	17
0	727717	72771.6	20
0	729197	72919.6	91
0	730219	73021.8	386
0	730353	73035.2	12
0	733701	73370	184
0	735101	73510	63
0	736257	73625.6	84
0	738133	73813.2	7
0	740855	74085.4	67
0	740975	74097.4	24
0	742587	74258.6	126
0	744295	74429.4	303
0	747591	74759	24
0	749629	74962.8	29
0	750521	75052	12
0	752673	75267.2	116
0	754033	75403.2	130
0	755103	75510.2	327
0	757149	75714.8	214
0	757551	75755	198
0	758503	75850.2	59
0	759397	75939.6	59
0	760861	76086	122
0	762789	76278.8	22
0	763689	76368.8	36
0	765239	76523.8	98
0	767323	76732.2	120
0	767747	76774.6	12
0	767987	76798.6	27
0	768105	76810.4	53
0	774213	77421.2	24
0	774943	77494.2	202
0	775703	77570.2	156
0	780591	78059	77
0	781823	78182.2	27
0	783989	78398.8	422
0	784285	78428.4	17
0	784473	78447.2	90
0	786645	78664.4	11
0	788673	78867.2	12
0	789407	78940.6	67
0	790411	79041	69
0	790721	79072	109
0	791967	79196.6	40
0	793485	79348.4	5
0	795269	79526.8	29
0	795477	79547.6	33
0	795801	79580	4
0	796529	79652.8	29
0	796701	79670	93
0	796985	79698.4	50
0	799781	79978	115
0	801065	80106.4	10
0	803979	80397.8	103
0	808699	80869.8	24
0	811251	81125	55
0	812203	81220.2	204
0	813991	81399	115
0	815023	81502.2	353
0	819217	81921.6	170
0	819623	81962.2	91
0	820513	82051.2	94
0	820759	82075.8	130
0	820821	82082	36
0	821325	82132.4	80
0	822353	82235.2	51
0	822527	82252.6	92
0	822709	82270.8	23
0	822965	82296.4	88
0	824811	82481	20
0	827739	82773.8	55
0	828219	82821.8	43
0	828545	82854.4	28
0	829205	82920.4	49
0	829647	82964.6	195
0	830539	83053.8	79
0	830861	83086	26
0	831763	83176.2	7
0	832367	83236.6	90
0	832583	83258.2	10
0	834481	83448	69
0	837017	83701.6	12
0	838595	83859.4	97
0	839775	83977.4	25
0	840831	84083	83
0	841305	84130.4	173
0	842649	84264.8	19
0	842667	84266.6	9
0	843125	84312.4	77
0	846567	84656.6	53
0	848201	84820	59
0	848397	84839.6	72
0	849817	84981.6	213
0	850899	85089.8	67
0	853783	85378.2	12
0	854599	85459.8	58
0	857803	85780.2	1
0	859777	85977.6	329
0	864143	86414.2	83
0	864227	86422.6	41
0	864913	86491.2	35
0	865149	86514.8	3
0	865881	86588	278
0	866031	86603	137
0	866551	86655	305
0	866783	86678.2	50
0	867693	86769.2	9
0	868223	86822.2	31
0	868813	86881.2	10
0	869453	86945.2	166
0	871043	87104.2	29
0	872143	87214.2	5
0	877339	87733.8	161
0	877503	87750.2	111
0	878905	87890.4	25
0	882501	88250	30
0	883017	88301.6	378
0	883965	88396.4	14
0	885289	88528.8	23
0	888139	88813.8	154
0	888867	88886.6	13
0	889461	88946	8
0	891105	89110.4	13
0	893615	89361.4	116
0	893701	89370	7
0	894045	89404.4	32
0	894287	89428.6	47
0	895933	89593.2	15
0	897843	89784.2	79
0	899527	89952.6	105
0	901859	90185.8	165
0	902621	90262	38
0	903089	90308.8	404
0	905627	90562.6	13
0	907233	90723.2	8
0	908809	90880.8	91
0	909027	90902.6	3
0	910375	91037.4	45
0	912485	91248.4	441
0	912945	91294.4	3
0	917845	91784.4	40
0	918039	91803.8	63
0	918155	91815.4	73
0	918293	91829.2	17
0	918497	91849.6	172
0	918789	91878.8	6
0	919643	91964.2	4
0	920211	92021	85
0	920477	92047.6	233
0	921373	92137.2	74
0	921907	92190.6	9
0	922721	92272	92
0	923135	92313.4	30
0	923265	92326.4	93
0	923919	92391.8	72
0	925279	92527.8	5
0	927723	92772.2	194
0	927973	92797.2	6
0	929361	92936	10
0	931071	93107	150
0	936873	93687.2	12
0	936915	93691.4	25
0	938945	93894.4	57
0	939599	93959.8	215
0	939989	93998.8	200
0	942947	94294.6	3
0	945991	94599	125
0	946063	94606.2	55
0	946257	94625.6	51
0	947623	94762.2	29
0	948901	94890	417
0	952601	95260	56
0	955061	95506	9
0	955723	95572.2	9
0	956801	95680	126
0	957637	95763.6	246
0	959387	95938.6	37
0	963415	96341.4	105
0	964635	96463.4	142
0	965543	96554.2	23
0	969113	96911.2	165
0	972455	97245.4	37
0	973691	97369	108
0	974557	97455.6	62
0	974947	97494.6	77
0	975957	97595.6	162
0	977391	97739	83
0	977577	97757.6	22
0	978023	97802.2	88
0	978293	97829.2	58
0	979393	97939.2	7
0	980553	98055.2	3
0	980769	98076.8	15
0	982967	98296.6	14
0	984033	98403.2	290
0	987641	98764	20
0	988285	98828.4	74
0	991119	99111.8	109
0	991489	99148.8	27
0	993035	99303.4	109
0	993611	99361	36
0	995005	99500.4	88
0	995015	99501.4	9
0	995289	99528.8	171
0	995369	99536.8	75
0	995487	99548.6	43
0	997035	99703.4	9
0	999705	99970.4	39
0	1000659	100065.8	114
0	1001263	100126.2	60
0	1001411	100141	99
0	1004075	100407.4	298
0	1008137	100813.6	161
0	1009173	100917.2	77
0	1011045	101104.4	167
0	1012377	101237.6	99
0	1014623	101462.2	15
0	1015367	101536.6	70
0	1016875	101687.4	104
0	1017233	101723.2	161
0	1018935	101893.4	104
0	1021045	102104.4	15
0	1021453	102145.2	257
0	1022595	102259.4	176
0	1023425	102342.4	401
0	1024401	102440	7
0	1026261	102626	27
0	1028097	102809.6	124
0	1030559	103055.8	30
0	1034043	103404.2	118
0	1034147	103414.6	8
0	1035125	103512.4	98
0	1043673	104367.2	24
0	1043951	104395	7
0	1045071	104507	122
0	1045499	104549.8	45
0	1047751	104775	5
0	1047867	104786.6	1
0	1048343	104834.2	43
0	1053043	105304.2	30
0	1054675	105467.4	19
0	1060031	106003	3
0	1060847	106084.6	74
0	1061763	106176.2	85
0	1065421	106542	3
0	1067463	106746.2	5
0	1072259	107225.8	75
0	1072691	107269	7
0	1075459	107545.8	14
0	1075603	107560.2	34
0	1075969	107596.8	81
0	1077373	107737.2	18
0	1077565	107756.4	16
0	1077661	107766	17
0	1081375	108137.4	185
0	1082305	108230.4	8
0	1084305	108430.4	156
0	1085735	108573.4	182
0	1088373	108837.2	21
0	1088837	108883.6	263
0	1091331	109133	24
0	1092143	109214.2	171
0	1093283	109328.2	86
0	1093605	109360.4	99
0	1094005	109400.4	7
0	1094187	109418.6	93
0	1095659	109565.8	23
0	1096141	109614	1
0	1096297	109629.6	70
0	1097487	109748.6	24
0	1097501	109750	13
0	1101839	110183.8	12
0	1106147	110614.6	101
0	1108017	110801.6	5
0	1109377	110937.6	104
0	1109701	110970	34
0	1110337	111033.6	4
0	1110819	111081.8	103
0	1112695	111269.4	48
0	1115091	111509	11
0	1115353	111535.2	86
0	1116677	111667.6	25
0	1117815	111781.4	15
0	1119181	111918	4
0	1120369	112036.8	1
0	1122903	112290.2	404
0	1124471	112447	7
0	1127501	112750	14
0	1130517	113051.6	172
0	1131101	113110	25
0	1131637	113163.6	9
0	1133447	113344.6	45
0	1138475	113847.4	2
0	1140621	114062	9
0	1142377	114237.6	101
0	1142915	114291.4	15
0	1145079	114507.8	298
0	1145917	114591.6	111
0	1147003	114700.2	31
0	1147917	114791.6	20
0	1151037	115103.6	7
0	1151671	115167	121
0	1153881	115388	230
0	1154023	115402.2	41
0	1155147	115514.6	162
0	1157405	115740.4	51
0	1159351	115935	11
0	1159473	115947.2	77
0	1160011	116001	54
0	1161459	116145.8	2
0	1164167	116416.6	92
0	1165421	116542	19
0	1168415	116841.4	19
0	1168533	116853.2	2
0	1171263	117126.2	26
0	1174293	117429.2	71
0	1179567	117956.6	197
0	1181973	118197.2	130
0	1185907	118590.6	270
0	1186641	118664	85
0	1188835	118883.4	202
0	1189039	118903.8	6
0	1191467	119146.6	5
0	1191683	119168.2	161
0	1193139	119313.8	13
0	1193673	119367.2	13
0	1194431	119443	197
0	1195129	119512.8	25
0	1196813	119681.2	312
0	1197823	119782.2	26
0	1198933	119893.2	76
0	1199369	119936.8	131
0	1202325	120232.4	9
0	1203143	120314.2	47
0	1203839	120383.8	114
0	1207137	120713.6	115
0	1207963	120796.2	18
0	1211751	121175	114
0	1212665	121266.4	104
0	1213237	121323.6	71
0	1214519	121451.8	219
0	1216011	121601	6
0	1217363	121736.2	6
0	1217893	121789.2	63
0	1218411	121841	128
0	1218721	121872	68
0	1218899	121889.8	2
0	1221733	122173.2	8
0	1222383	122238.2	12
0	1223293	122329.2	10
0	1225093	122509.2	427
0	1225339	122533.8	35
0	1226371	122637	148
0	1227055	122705.4	109
0	1227469	122746.8	13
0	1228877	122887.6	18
0	1235863	123586.2	16
0	1239139	123913.8	13
0	1239831	123983	32
0	1240315	124031.4	1
0	1240721	124072	8
0	1241101	124110	15
0	1241603	124160.2	3
0	1242043	124204.2	25
0	1243051	124305	36
0	1246231	124623	15
0	1247291	124729	60
0	1248353	124835.2	118
0	1248851	124885	183
0	1250879	125087.8	3
0	1252337	125233.6	88
0	1257519	125751.8	384
0	1257545	125754.4	3
0	1259033	125903.2	48
0	1260229	126022.8	54
0	1261171	126117	92
0	1262497	126249.6	203
0	1263087	126308.6	42
0	1266615	126661.4	52
0	1268821	126882	1
0	1271767	127176.6	20
0	1273361	127336	56
0	1273731	127373	3
0	1274549	127454.8	43
0	1278333	127833.2	9
0	1278677	127867.6	28
0	1279123	127912.2	13
0	1279887	127988.6	56
0	1281635	128163.4	30
0	1282107	128210.6	50
0	1282861	128286	122
0	1284301	128430	28
0	1284735	128473.4	8
0	1285081	128508	9
0	1288587	128858.6	11
0	1288719	128871.8	102
0	1292841	129284	70
0	1293197	129319.6	30
0	1293335	129333.4	101
0	1294173	129417.2	60
0	1294553	129455.2	49
0	1295807	129580.6	16
0	1295943	129594.2	7
0	1296897	129689.6	19
0	1298023	129802.2	11
0	1298287	129828.6	241
0	1298637	129863.6	21
0	1299047	129904.6	4
0	1299749	129974.8	34
0	1300413	130041.2	89
0	1301973	130197.2	8
0	1304665	130466.4	45
0	1308391	130839	37
0	1308581	130858	155
0	1308795	130879.4	11
0	1309703	130970.2	130
0	1311303	131130.2	75
0	1311519	131151.8	50
0	1311915	131191.4	59
0	1312601	131260	534
0	1312663	131266.2	50
0	1316781	131678	81
0	1319779	131977.8	12
0	1320771	132077	6
0	1323099	132309.8	22
0	1323469	132346.8	5
0	1326325	132632.4	311
0	1326537	132653.6	15
0	1326923	132692.2	10
0	1331007	133100.6	3
0	1334843	133484.2	28
0	1338475	133847.4	159
0	1338599	133859.8	42
0	1338725	133872.4	104
0	1340789	134078.8	33
0	1341055	134105.4	140
0	1341707	134170.6	3
0	1343203	134320.2	200
0	1344333	134433.2	106
0	1345781	134578	132
0	1348237	134823.6	32
0	1349137	134913.6	3
0	1349991	134999	209
0	1350845	135084.4	19
0	1351259	135125.8	2
0	1353075	135307.4	67
0	1353899	135389.8	8
0	1354241	135424	20
0	1355351	135535	75
0	1356669	135666.8	43
0	1356929	135692.8	50
0	1357781	135778	47
0	1357867	135786.6	14
0	1358445	135844.4	113
0	1361547	136154.6	205
0	1364011	136401	171
0	1364915	136491.4	26
0	1365911	136591	245
0	1366215	136621.4	51
0	1366539	136653.8	83
0	1368771	136877	163
0	1369121	136912	21
0	1371063	137106.2	81
0	1371271	137127	94
0	1371397	137139.6	110
0	1372687	137268.6	90
0	1373021	137302	86
0	1373779	137377.8	131
0	1373807	137380.6	2
0	1374661	137466	30
0	1375721	137572	195
0	1376251	137625	64
0	1380745	138074.4	158
0	1380909	138090.8	55
0	1381395	138139.4	117
0	1382511	138251	17
0	1383739	138373.8	120
0	1384293	138429.2	169
0	1384559	138455.8	6
0	1384575	138457.4	3
0	1386063	138606.2	101
0	1386223	138622.2	101
0	1386569	138656.8	229
0	1388223	138822.2	193
0	1389059	138905.8	19
0	1389269	138926.8	35
0	1390011	139001	130
0	1393079	139307.8	25
0	1393279	139327.8	67
0	1393371	139337	2
0	1394885	139488.4	65
0	1395245	139524.4	11
0	1395981	139598	251
0	1398945	139894.4	47
0	1399473	139947.2	11
0	1400049	140004.8	37
0	1403437	140343.6	33
0	1404919	140491.8	24
0	1405353	140535.2	12
0	1406615	140661.4	281
0	1406651	140665	17
0	1408123	140812.2	41
0	1408767	140876.6	419
0	1410277	141027.6	69
0	1410415	141041.4	10
0	1410823	141082.2	10
0	1419245	141924.4	92
0	1419347	141934.6	3
0	1422687	142268.6	12
0	1424697	142469.6	96
0	1425515	142551.4	30
0	1425823	142582.2	33
0	1427519	142751.8	4
0	1430525	143052.4	17
0	1430923	143092.2	124
0	1432825	143282.4	41
0	1433409	143340.8	185
0	1435585	143558.4	119
0	1439399	143939.8	164
0	1441449	144144.8	482
0	1445703	144570.2	76
0	1447909	144790.8	27
0	1448091	144809	14
0	1450887	145088.6	33
0	1451407	145140.6	262
0	1452091	145209	11
0	1453345	145334.4	9
0	1457791	145779	6
0	1458211	145821	39
0	1458923	145892.2	4
0	1460067	146006.6	35
0	1461369	146136.8	219
0	1462899	146289.8	318
0	1464027	146402.6	104
0	1464241	146424	15
0	1465565	146556.4	97
0	1466357	146635.6	5
0	1466789	146678.8	130
0	1467095	146709.4	217
0	1467367	146736.6	188
0	1470707	147070.6	35
0	1470763	147076.2	25
0	1473319	147331.8	138
0	1474889	147488.8	4
0	1475269	147526.8	346
0	1476425	147642.4	42
0	1478713	147871.2	55
0	1480819	148081.8	151
0	1483061	148306	27
0	1483789	148378.8	18
0	1485017	148501.6	41
0	1486559	148655.8	61
0	1487795	148779.4	64
0	1491371	149137	101
0	1491823	149182.2	215
0	1492235	149223.4	9
0	1492385	149238.4	135
0	1493131	149313	12
0	1493985	149398.4	61
0	1495573	149557.2	96
0	1496343	149634.2	145
0	1497097	149709.6	35
0	1499467	149946.6	26
0	1502803	150280.2	40
0	1504111	150411	47
0	1504549	150454.8	160
0	1504845	150484.4	153
0	1505459	150545.8	34
0	1505871	150587	10
0	1507093	150709.2	23
0	1507269	150726.8	165
0	1510289	151028.8	89
0	1512167	151216.6	278
0	1515355	151535.4	15
0	1515477	151547.6	82
0	1515749	151574.8	249
0	1515837	151583.6	1
0	1516087	151608.6	86
0	1517329	151732.8	88
0	1518519	151851.8	124
0	1519311	151931	185
0	1519849	151984.8	76
0	1519981	151998	15
0	1523187	152318.6	239
0	1524015	152401.4	22
0	1524213	152421.2	1
0	1525127	152512.6	10
0	1525541	152554	208
0	1527527	152752.6	65
0	1527885	152788.4	26
0	1528475	152847.4	71
0	1532081	153208	66
0	1533833	153383.2	3
0	1534909	153490.8	66
0	1536133	153613.2	400
0	1536639	153663.8	254
0	1538907	153890.6	51
0	1540229	154022.8	12
0	1542247	154224.6	157
0	1543131	154313	30
0	1544743	154474.2	3
0	1546549	154654.8	141
0	1548787	154878.6	15
0	1548839	154883.8	42
0	1549379	154937.8	16
0	1550045	155004.4	3
0	1551239	155123.8	26
0	1551795	155179.4	205
0	1553195	155319.4	66
0	1553845	155384.4	112
0	1555059	155505.8	90
0	1555521	155552	144
0	1559491	155949	424
0	1562321	156232	4
0	1563235	156323.4	94
0	1564439	156443.8	81
0	1564685	156468.4	110
0	1565559	156555.8	19
0	1567693	156769.2	19
0	1568623	156862.2	90
0	1572567	157256.6	350
0	1579897	157989.6	76
0	1580309	158030.8	18
0	1580365	158036.4	8
0	1580707	158070.6	147
0	1581325	158132.4	327
0	1582419	158241.8	27
0	1584807	158480.6	291
0	1585373	158537.2	286
0	1585837	158583.6	128
0	1586647	158664.6	126
0	1587465	158746.4	8
0	1588189	158818.8	17
0	1588423	158842.2	109
0	1588565	158856.4	60
0	1589453	158945.2	171
0	1590463	159046.2	60
0	1591075	159107.4	9
0	1591989	159198.8	65
0	1592075	159207.4	4
0	1593429	159342.8	37
0	1594437	159443.6	137
0	1598323	159832.2	24
0	1601359	160135.8	370
0	1604089	160408.8	157
0	1605105	160510.4	12
0	1605925	160592.4	281
0	1611207	161120.6	54
0	1611819	161181.8	84
0	1612031	161203	15
0	1612855	161285.4	3
0	1613153	161315.2	3
0	1614227	161422.6	106
0	1614941	161494	100
0	1615839	161583.8	20
0	1616319	161631.8	29
0	1617159	161715.8	77
0	1617521	161752	21
0	1617597	161759.6	66
0	1617607	161760.6	7
0	1618095	161809.4	173
0	1619397	161939.6	40
0	1620125	162012.4	208
0	1621181	162118	80
0	1621345	162134.4	7
0	1621459	162145.8	112
0	1621875	162187.4	97
0	1622643	162264.2	75
0	1625467	162546.6	57
0	1625731	162573	205
0	1626359	162635.8	72
0	1627057	162705.6	6
0	1627687	162768.6	11
0	1629667	162966.6	49
0	1630105	163010.4	22
0	1632897	163289.6	169
0	1633641	163364	132
0	1633839	163383.8	128
0	1633897	163389.6	21
0	1634229	163422.8	3
0	1634951	163495	30
0	1635975	163597.4	167
0	1636751	163675	100
0	1637991	163799	91
0	1638189	163818.8	14
0	1638853	163885.2	25
0	1639951	163995	21
0	1642825	164282.4	43
0	1642879	164287.8	36
0	1648093	164809.2	278
0	1648935	164893.4	92
0	1649883	164988.2	290
0	1653387	165338.6	237
0	1653473	165347.2	8
0	1654101	165410	6
0	1654797	165479.6	69
0	1656351	165635	232
0	1658641	165864	130
0	1659855	165985.4	71
0	1660689	166068.8	18
0	1660891	166089	156
0	1662485	166248.4	37
0	1662785	166278.4	37
0	1663409	166340.8	53
0	1664259	166425.8	101
0	1665815	166581.4	40
0	1666827	166682.6	269
0	1668267	166826.6	90
0	1668819	166881.8	39
0	1669829	166982.8	134
0	1671131	167113	14
0	1671601	167160	32
0	1672809	167280.8	240
0	1672907	167290.6	23
0	1673257	167325.6	112
0	1673607	167360.6	63
0	1675855	167585.4	128
0	1676541	167654	13
0	1678273	167827.2	57
0	1678711	167871	80
0	1679595	167959.4	55
0	1681805	168180.4	26
0	1681941	168194	54
0	1682677	168267.6	15
0	1682723	168272.2	39
0	1682913	168291.2	186
0	1684585	168458.4	2
0	1684631	168463	38
0	1685541	168554	146
0	1685915	168591.4	20
0	1689213	168921.2	30
0	1689519	168951.8	55
0	1695939	169593.8	8
0	1697107	169710.6	195
0	1698969	169896.8	15
0	1699247	169924.6	13
0	1699937	169993.6	206
0	1701753	170175.2	335
0	1701787	170178.6	4
0	1703961	170396	57
0	1704385	170438.4	76
0	1704761	170476	83
0	1706635	170663.4	119
0	1708011	170801	239
0	1709089	170908.8	56
0	1710611	171061	184
0	1711179	171117.8	9
0	1711397	171139.6	45
0	1711639	171163.8	26
0	1712425	171242.4	125
0	1712665	171266.4	85
0	1712835	171283.4	36
0	1715425	171542.4	93
0	1720865	172086.4	402
0	1721315	172131.4	171
0	1721453	172145.2	7
0	1723197	172319.6	159
0	1723259	172325.8	36
0	1726169	172616.8	11
0	1727331	172733	237
0	1728497	172849.6	22
0	1729943	172994.2	9
0	1730061	173006	50
0	1731991	173199	40
0	1735267	173526.6	15
0	1739307	173930.6	86
0	1739619	173961.8	31
0	1742865	174286.4	240
0	1743855	174385.4	15
0	1744803	174480.2	19
0	1745693	174569.2	54
0	1746241	174624	69
0	1746279	174627.8	17
0	1747073	174707.2	485
0	1748277	174827.6	19
0	1748855	174885.4	45
0	1749007	174900.6	147
0	1749657	174965.6	32
0	1749845	174984.4	29
0	1750985	175098.4	17
0	1753121	175312	32
0	1753315	175331.4	9
0	1753371	175337	14
0	1753875	175387.4	98
0	1754529	175452.8	28
0	1755319	175531.8	93
0	1756579	175657.8	75
0	1757105	175710.4	23