version 3
run General-124-20230611-05:41:41-416646
attr configname General
attr datetime 20230611-05:41:41
attr datetimef 20230611-054141
attr experiment General
attr inifile omnetpp.ini
attr iterationvars $N=97
attr iterationvarsd N=97
attr iterationvarsf N=97-
attr measurement $N=97
attr network LN
attr processid 416646
attr repetition 0
attr replication #0
attr resultdir results
attr runnumber 124
attr seedset 124
itervar N 97
config network LN
config sim-time-limit 250000s
config **.tic[*].hopCount.result-recording-modes +vector
config *.numCentralNodes 97
config repeat 4

vector 0 LN.lnd[15] hopCount:vector ETV
attr interpolationmode none
attr recordingmode vector
attr source arrival
attr title "hop count"
vector 1 LN.lnd[12] hopCount:vector ETV
attr interpolationmode none
attr recordingmode vector
attr source arrival
attr title "hop count"
vector 2 LN.lnd[5] hopCount:vector ETV
attr interpolationmode none
attr recordingmode vector
attr source arrival
attr title "hop count"
vector 3 LN.lnd[0] hopCount:vector ETV
attr interpolationmode none
attr recordingmode vector
attr source arrival
attr title "hop count"
vector 4 LN.lnd[14] hopCount:vector ETV
attr interpolationmode none
attr recordingmode vector
attr source arrival
attr title "hop count"
vector 5 LN.lnd[17] hopCount:vector ETV
attr interpolationmode none
attr recordingmode vector
attr source arrival
attr title "hop count"
vector 6 LN.lnd[8] hopCount:vector ETV
attr interpolationmode none
attr recordingmode vector
attr source arrival
attr title "hop count"
vector 7 LN.lnd[13] hopCount:vector ETV
attr interpolationmode none
attr recordingmode vector
attr source arrival
attr title "hop count"
vector 8 LN.lnd[16] hopCount:vector ETV
attr interpolationmode none
attr recordingmode vector
attr source arrival
attr title "hop count"
vector 9 LN.lnd[1] hopCount:vector ETV
attr interpolationmode none
attr recordingmode vector
attr source arrival
attr title "hop count"
vector 10 LN.lnd[3] hopCount:vector ETV
attr interpolationmode none
attr recordingmode vector
attr source arrival
attr title "hop count"
vector 11 LN.lnd[6] hopCount:vector ETV
attr interpolationmode none
attr recordingmode vector
attr source arrival
attr title "hop count"
vector 12 LN.lnd[10] hopCount:vector ETV
attr interpolationmode none
attr recordingmode vector
attr source arrival
attr title "hop count"
vector 13 LN.lnd[7] hopCount:vector ETV
attr interpolationmode none
attr recordingmode vector
attr source arrival
attr title "hop count"
vector 14 LN.lnd[2] hopCount:vector ETV
attr interpolationmode none
attr recordingmode vector
attr source arrival
attr title "hop count"
vector 15 LN.lnd[4] hopCount:vector ETV
attr interpolationmode none
attr recordingmode vector
attr source arrival
attr title "hop count"
vector 16 LN.lnd[9] hopCount:vector ETV
attr interpolationmode none
attr recordingmode vector
attr source arrival
attr title "hop count"
vector 17 LN.lnd[11] hopCount:vector ETV
attr interpolationmode none
attr recordingmode vector
attr source arrival
attr title "hop count"
vector 18 LN.lnd[19] hopCount:vector ETV
attr interpolationmode none
attr recordingmode vector
attr source arrival
attr title "hop count"
vector 19 LN.lnd[18] hopCount:vector ETV
attr interpolationmode none
attr recordingmode vector
attr source arrival
attr title "hop count"
0	48	4.7	47
0	156	15.5	79
0	390	38.9	55
0	900	89.9	7
0	1294	129.3	99
0	3548	354.7	9
0	4626	462.5	102
0	8490	848.9	16
0	11074	1107.3	155
0	12336	1233.5	86
0	12394	1239.3	26
0	13628	1362.7	149
0	16214	1621.3	244
0	16462	1646.1	44
0	17232	1723.1	250
0	21152	2115.1	138
0	21602	2160.1	187
0	21870	2186.9	154
0	22346	2234.5	11
0	22956	2295.5	33
0	26152	2615.1	176
0	28980	2897.9	19
0	30470	3046.9	10
0	30742	3074.1	7
0	31080	3107.9	55
0	31418	3141.7	165
0	31518	3151.7	10
0	32246	3224.5	26
0	36918	3691.7	382
0	38440	3843.9	168
0	39110	3910.9	193
0	40136	4013.5	203
0	41622	4162.1	73
0	44274	4427.3	449
0	45532	4553.1	475
0	51354	5135.3	381
0	54582	5458.1	80
0	55982	5598.1	145
0	56072	5607.1	2
0	57314	5731.3	70
0	59228	5922.7	199
0	61740	6173.9	4
0	61764	6176.3	21
0	61992	6199.1	140
0	63596	6359.5	17
0	64562	6456.1	320
0	65304	6530.3	3
0	66180	6617.9	72
0	66530	6652.9	12
0	67328	6732.7	106
0	67828	6782.7	124
0	68838	6883.7	15
0	69856	6985.5	29
0	71542	7154.1	8
0	72516	7251.5	33
0	73956	7395.5	37
0	75480	7547.9	110
0	77564	7756.3	35
0	79684	7968.3	66
0	80694	8069.3	31
0	84192	8419.1	135
0	85404	8540.3	55
0	85640	8563.9	22
0	86308	8630.7	117
0	88362	8836.1	17
0	88470	8846.9	20
0	89422	8942.1	51
0	91466	9146.5	147
0	91996	9199.5	325
0	93730	9372.9	157
0	96416	9641.5	286
0	96578	9657.7	130
0	96900	9689.9	123
0	97742	9774.1	27
0	98476	9847.5	80
0	102212	10221.1	91
0	102718	10271.7	94
0	105848	10584.7	53
0	106254	10625.3	23
0	106416	10641.5	64
0	107902	10790.1	53
0	109312	10931.1	213
0	109332	10933.1	10
0	109690	10968.9	74
0	114434	11443.3	29
0	116828	11682.7	25
0	117124	11712.3	26
0	117222	11722.1	1
0	117576	11757.5	212
0	118638	11863.7	131
0	120586	12058.5	446
0	120614	12061.3	14
0	125776	12577.5	15
0	125954	12595.3	147
0	128826	12882.5	431
0	130734	13073.3	206
0	132462	13246.1	6
0	133732	13373.1	78
0	134762	13476.1	6
0	135312	13531.1	89
0	137674	13767.3	177
0	138474	13847.3	13
0	139288	13928.7	77
0	141616	14161.5	530
0	143998	14399.7	30
0	144724	14472.3	8
0	145306	14530.5	45
0	145974	14597.3	68
0	146590	14658.9	112
0	148104	14810.3	213
0	148552	14855.1	105
0	150748	15074.7	17
0	153416	15341.5	44
0	154004	15400.3	123
0	156444	15644.3	25
0	156946	15694.5	91
0	158770	15876.9	160
0	160090	16008.9	36
0	161048	16104.7	34
0	162962	16296.1	33
0	164380	16437.9	7
0	167358	16735.7	58
0	168236	16823.5	157
0	170756	17075.5	418
0	176418	17641.7	105
0	177058	17705.7	6
0	178038	17803.7	347
0	183040	18303.9	216
0	184198	18419.7	112
0	184690	18468.9	22
0	186906	18690.5	156
0	186916	18691.5	9
0	188144	18814.3	201
0	194378	19437.7	7
0	195894	19589.3	83
0	196498	19649.7	26
0	198020	19801.9	458
0	200588	20058.7	72
0	202522	20252.1	120
0	204452	20445.1	69
0	205848	20584.7	99
0	208834	20883.3	254
0	209158	20915.7	5
0	209534	20953.3	342
0	210574	21057.3	1
0	210912	21091.1	5
0	211930	21192.9	1
0	212996	21299.5	190
0	213198	21319.7	98
0	215646	21564.5	19
0	219636	21963.5	15
0	220696	22069.5	11
0	220958	22095.7	157
0	221630	22162.9	93
0	221762	22176.1	110
0	223424	22342.3	73
0	224678	22467.7	850
0	225508	22550.7	128
0	225678	22567.7	60
0	228058	22805.7	74
0	228322	22832.1	120
0	229212	22921.1	137
0	230956	23095.5	19
0	231282	23128.1	257
0	233124	23312.3	141
0	235620	23561.9	286
0	237286	23728.5	41
0	240240	24023.9	156
0	242012	24201.1	40
0	245084	24508.3	4
0	248624	24862.3	186
0	249642	24964.1	40
0	249772	24977.1	83
0	251084	25108.3	80
0	251588	25158.7	13
0	253474	25347.3	70
0	254306	25430.5	149
0	254482	25448.1	126
0	255058	25505.7	134
0	256658	25665.7	311
0	259458	25945.7	34
0	263434	26343.3	26
0	263960	26395.9	192
0	264558	26455.7	298
0	265098	26509.7	30
0	266250	26624.9	14
0	267510	26750.9	28
0	269610	26960.9	214
0	270102	27010.1	21
0	273192	27319.1	38
0	275874	27587.3	18
0	277026	27702.5	4
0	277290	27728.9	78
0	277594	27759.3	88
0	278084	27808.3	162
0	279246	27924.5	65
0	280340	28033.9	5
0	283266	28326.5	122
0	283490	28348.9	24
0	285152	28515.1	5
0	287790	28778.9	143
0	290194	29019.3	188
0	290368	29036.7	38
0	290520	29051.9	122
0	291280	29127.9	227
0	292792	29279.1	76
0	292902	29290.1	43
0	293274	29327.3	56
0	293542	29354.1	1
0	293950	29394.9	348
0	294358	29435.7	352
0	294376	29437.5	3
0	295142	29514.1	683
0	295346	29534.5	42
0	296270	29626.9	254
0	301262	30126.1	54
0	304926	30492.5	285
0	305470	30546.9	172
0	306536	30653.5	103
0	310376	31037.5	1
0	312114	31211.3	10
0	312996	31299.5	89
0	316806	31680.5	169
0	317494	31749.3	15
0	318884	31888.3	151
0	319224	31922.3	57
0	319342	31934.1	13
0	322638	32263.7	31
0	322640	32263.9	1
0	324248	32424.7	8
0	325424	32542.3	131
0	325712	32571.1	198
0	325842	32584.1	12
0	326866	32686.5	169
0	327460	32745.9	134
0	329670	32966.9	438
0	331328	33132.7	244
0	333114	33311.3	232
0	333728	33372.7	24
0	337068	33706.7	155
0	337374	33737.3	187
0	337380	33737.9	2
0	344194	34419.3	10
0	344714	34471.3	81
0	345798	34579.7	55
0	345932	34593.1	42
0	347414	34741.3	24
0	347550	34754.9	3
0	350108	35010.7	3
0	351038	35103.7	136
0	352142	35214.1	11
0	352870	35286.9	3
0	353158	35315.7	186
0	353470	35346.9	177
0	353890	35388.9	69
0	356258	35625.7	33
0	356680	35667.9	374
0	357202	35720.1	50
0	359768	35976.7	1
0	360966	36096.5	472
0	363400	36339.9	142
0	363686	36368.5	172
0	366180	36617.9	8
0	366914	36691.3	155
0	368366	36836.5	44
0	371314	37131.3	94
0	371954	37195.3	288
0	371982	37198.1	14
0	372586	37258.5	43
0	375062	37506.1	88
0	376358	37635.7	119
0	376956	37695.5	23
0	377794	37779.3	314
0	383128	38312.7	470
0	384106	38410.5	60
0	385984	38598.3	1
0	387316	38731.5	1
0	387632	38763.1	237
0	388652	38865.1	371
0	389736	38973.5	35
0	390162	39016.1	67
0	392412	39241.1	7
0	393720	39371.9	52
0	395906	39590.5	25
0	396294	39629.3	348
0	397662	39766.1	53
0	398874	39887.3	46
0	402816	40281.5	16
0	404208	40420.7	374
0	405916	40591.5	57
0	406034	40603.3	63
0	406208	40620.7	21
0	406662	40666.1	152
0	407556	40755.5	39
0	410910	41090.9	90
0	411228	41122.7	3
0	412770	41276.9	1
0	413220	41321.9	52
0	413536	41353.5	2
0	416096	41609.5	13
0	416316	41631.5	138
0	418222	41822.1	27
0	418774	41877.3	364
0	419240	41923.9	121
0	420078	42007.7	53
0	423082	42308.1	54
0	425734	42573.3	253
0	426390	42638.9	523
0	426744	42674.3	56
0	428512	42851.1	84
0	428872	42887.1	80
0	429226	42922.5	31
0	429852	42985.1	130
0	430152	43015.1	175
0	430500	43049.9	7
0	435370	43536.9	28
0	435606	43560.5	54
0	435918	43591.7	16
0	437462	43746.1	403
0	438062	43806.1	118
0	441012	44101.1	361
0	441846	44184.5	111
0	442844	44284.3	11
0	445108	44510.7	57
0	445810	44580.9	270
0	448334	44833.3	133
0	448942	44894.1	3
0	450692	45069.1	60
0	451166	45116.5	42
0	452324	45232.3	114
0	453066	45306.5	262
0	456036	45603.5	44
0	456660	45665.9	158
0	456816	45681.5	110
0	456930	45692.9	80
0	459648	45964.7	160
0	459848	45984.7	7
0	460656	46065.5	131
0	461290	46128.9	138
0	462812	46281.1	42
0	465064	46506.3	67
0	465512	46551.1	138
0	466826	46682.5	230
0	467826	46782.5	44
0	468088	46808.7	117
0	469032	46903.1	29
0	469350	46934.9	154
0	469840	46983.9	21
0	470914	47091.3	93
0	472254	47225.3	13
0	473072	47307.1	53
0	473428	47342.7	321
0	475340	47533.9	96
0	475478	47547.7	82
0	480484	48048.3	286
0	482832	48283.1	193
0	483972	48397.1	83
0	484128	48412.7	74
0	486336	48633.5	91
0	488106	48810.5	54
0	488574	48857.3	66
0	491694	49169.3	60
0	492016	49201.5	285
0	493876	49387.5	41
0	496194	49619.3	81
0	497148	49714.7	55
0	497318	49731.7	141
0	498076	49807.5	497
0	500432	50043.1	23
0	501236	50123.5	47
0	501522	50152.1	181
0	501750	50174.9	178
0	503390	50338.9	28
0	503500	50349.9	108
0	503630	50362.9	24
0	503788	50378.7	49
0	504138	50413.7	64
0	504298	50429.7	1
0	505666	50566.5	112
0	507036	50703.5	78
0	508804	50880.3	309
0	509812	50981.1	492
0	511378	51137.7	44
0	515160	51515.9	23
0	517180	51717.9	243
0	517516	51751.5	99
0	524314	52431.3	129
0	524664	52466.3	118
0	526244	52624.3	103
0	527846	52784.5	16
0	528912	52891.1	21
0	531008	53100.7	81
0	532514	53251.3	403
0	532968	53296.7	201
0	533172	53317.1	16
0	535846	53584.5	47
0	536634	53663.3	41
0	539890	53988.9	95
0	541522	54152.1	178
0	543120	54311.9	185
0	546134	54613.3	94
0	546456	54645.5	62
0	547106	54710.5	309
0	547256	54725.5	53
0	550318	55031.7	63
0	550454	55045.3	24
0	551092	55109.1	107
0	552364	55236.3	598
0	553928	55392.7	277
0	554644	55464.3	381
0	555112	55511.1	121
0	556668	55666.7	368
0	559374	55937.3	67
0	560006	56000.5	409
0	560240	56023.9	164
0	560792	56079.1	14
0	561308	56130.7	284
0	561606	56160.5	170
0	562178	56217.7	453
0	562452	56245.1	62
0	563282	56328.1	282
0	564844	56484.3	69
0	567302	56730.1	15
0	567380	56737.9	18
0	568176	56817.5	136
0	569024	56902.3	151
0	569520	56951.9	219
0	570630	57062.9	14
0	571314	57131.3	134
0	572438	57243.7	252
0	573896	57389.5	272
0	574426	57442.5	58
0	576080	57607.9	67
0	579482	57948.1	85
0	580116	58011.5	383
0	580788	58078.7	246
0	581966	58196.5	131
0	582890	58288.9	21
0	583204	58320.3	91
0	583764	58376.3	125
0	586384	58638.3	11
0	586920	58691.9	69
0	587176	58717.5	5
0	589320	58931.9	9
0	590710	59070.9	85
0	591210	59120.9	425
0	592320	59231.9	396
0	592472	59247.1	138
0	592740	59273.9	90
0	593062	59306.1	187
0	598374	59837.3	517
0	598718	59871.7	176
0	599646	59964.5	56
0	600838	60083.7	3
0	601998	60199.7	25
0	602812	60281.1	35
0	606658	60665.7	44
0	606750	60674.9	56
0	607204	60720.3	399
0	608540	60853.9	410
0	609774	60977.3	98
0	613194	61319.3	36
0	614646	61464.5	175
0	615944	61594.3	5
0	616298	61629.7	70
0	616482	61648.1	45
0	617958	61795.7	275
0	618552	61855.1	103
0	619858	61985.7	6
0	620894	62089.3	40
0	622578	62257.7	114
0	623456	62345.5	23
0	625298	62529.7	99
0	625722	62572.1	4
0	627456	62745.5	86
0	631250	63124.9	47
0	633262	63326.1	252
0	633562	63356.1	99
0	634944	63494.3	22
0	637242	63724.1	586
0	638694	63869.3	38
0	641446	64144.5	49
0	642492	64249.1	200
0	643686	64368.5	5
0	643800	64379.9	109
0	646284	64628.3	432
0	646460	64645.9	31
0	648818	64881.7	40
0	648952	64895.1	65
0	651720	65171.9	289
0	652372	65237.1	342
0	653758	65375.7	1
0	655770	65576.9	7
0	657930	65792.9	642
0	658640	65863.9	112
0	658924	65892.3	130
0	659302	65930.1	14
0	660902	66090.1	38
0	661500	66149.9	33
0	665206	66520.5	78
0	665476	66547.5	32
0	666612	66661.1	102
0	667092	66709.1	3
0	668320	66831.9	15
0	670122	67012.1	14
0	672194	67219.3	88
0	673650	67364.9	172
0	675598	67559.7	9
0	676678	67667.7	71
0	677314	67731.3	283
0	681166	68116.5	66
0	683324	68332.3	75
0	683748	68374.7	11
0	683968	68396.7	31
0	685398	68539.7	260
0	687572	68757.1	297
0	689120	68911.9	420
0	689396	68939.5	29
0	691368	69136.7	334
0	693238	69323.7	132
0	694852	69485.1	204
0	699276	69927.5	116
0	699796	69979.5	3
0	700206	70020.5	37
0	701914	70191.3	271
0	702060	70205.9	22
0	703848	70384.7	79
0	704900	70489.9	61
0	706250	70624.9	229
0	707912	70791.1	16
0	708076	70807.5	62
0	708576	70857.5	139
0	708790	70878.9	119
0	712206	71220.5	109
0	714194	71419.3	224
0	715288	71528.7	164
0	717672	71767.1	14
0	718504	71850.3	234
0	718988	71898.7	480
0	719430	71942.9	87
0	721538	72153.7	45
0	722206	72220.5	84
0	722926	72292.5	56
0	723118	72311.7	81
0	723588	72358.7	86
0	724886	72488.5	96
0	727948	72794.7	176
0	729528	72952.7	362
0	730374	73037.3	257
0	730680	73067.9	242
0	730978	73097.7	251
0	731536	73153.5	94
0	732010	73200.9	28
0	732450	73244.9	202
0	733706	73370.5	89
0	734416	73441.5	69
0	734822	73482.1	61
0	737538	73753.7	324
0	738662	73866.1	42
0	740418	74041.7	184
0	741220	74121.9	41
0	742010	74200.9	357
0	744098	74409.7	161
0	745410	74540.9	67
0	746268	74626.7	74
0	748340	74833.9	66
0	749066	74906.5	128
0	749198	74919.7	83
0	752088	75208.7	116
0	754116	75411.5	20
0	755080	75507.9	255
0	755438	75543.7	199
0	756744	75674.3	26
0	757242	75724.1	11
0	757502	75750.1	25
0	757980	75797.9	235
0	758518	75851.7	4
0	761020	76101.9	82
0	762064	76206.3	28
0	764450	76444.9	30
0	766868	76686.7	278
0	768358	76835.7	302
0	769730	76972.9	141
0	771442	77144.1	196
0	772588	77258.7	401
0	775344	77534.3	42
0	776038	77603.7	51
0	776724	77672.3	137
0	776816	77681.5	11
0	778568	77856.7	13
0	778978	77897.7	100
0	781598	78159.7	113
0	782000	78199.9	339
0	782094	78209.3	62
0	782514	78251.3	63
0	784286	78428.5	90
0	784954	78495.3	24
0	785972	78597.1	20
0	786344	78634.3	153
0	787242	78724.1	54
0	788548	78854.7	41
0	788862	78886.1	35
0	789282	78928.1	172
0	791702	79170.1	42
0	792678	79267.7	72
0	794276	79427.5	198
0	796468	79646.7	132
0	796842	79684.1	44
0	800052	80005.1	6
0	800538	80053.7	16
0	801942	80194.1	53
0	804130	80412.9	17
0	809012	80901.1	160
0	810530	81052.9	108
0	812642	81264.1	97
0	813554	81355.3	38
0	814990	81498.9	35
0	816632	81663.1	41
0	817934	81793.3	185
0	820446	82044.5	212
0	822136	82213.5	59
0	823266	82326.5	159
0	823914	82391.3	51
0	825124	82512.3	145
0	826270	82626.9	14
0	827250	82724.9	80
0	828694	82869.3	93
0	832710	83270.9	84
0	837746	83774.5	80
0	840620	84061.9	409
0	842228	84222.7	85
0	844412	84441.1	199
0	844760	84475.9	21
0	846374	84637.3	243
0	849030	84902.9	167
0	851756	85175.5	410
0	851996	85199.5	86
0	852184	85218.3	9
0	854868	85486.7	48
0	855182	85518.1	274
0	855240	85523.9	21
0	856108	85610.7	87
0	856990	85698.9	145
0	857222	85722.1	1
0	857702	85770.1	114
0	859354	85935.3	12
0	859590	85958.9	89
0	859720	85971.9	3
0	860720	86071.9	9
0	862234	86223.3	61
0	862878	86287.7	184
0	863930	86392.9	1
0	867230	86722.9	331
0	867926	86792.5	55
0	869126	86912.5	254
0	869332	86933.1	3
0	869724	86972.3	164
0	870974	87097.3	21
0	871860	87185.9	216
0	873822	87382.1	164
0	879384	87938.3	18
0	881886	88188.5	103
0	882678	88267.7	75
0	884938	88493.7	3
0	886188	88618.7	161
0	886790	88678.9	534
0	888334	88833.3	1
0	888596	88859.5	5
0	890548	89054.7	5
0	892166	89216.5	79
0	893520	89351.9	62
0	895112	89511.1	408
0	898620	89861.9	112
0	900530	90052.9	101
0	902010	90200.9	7
0	902250	90224.9	65
0	902928	90292.7	249
0	904216	90421.5	94
0	904820	90481.9	304
0	905402	90540.1	92
0	906098	90609.7	170
0	909062	90906.1	728
0	909282	90928.1	15
0	910964	91096.3	153
0	911252	91125.1	13
0	914000	91399.9	125
0	914692	91469.1	20
0	915714	91571.3	64
0	917146	91714.5	140
0	918522	91852.1	629
0	919348	91934.7	10
0	919980	91997.9	9
0	920212	92021.1	112
0	921308	92130.7	49
0	921712	92171.1	170
0	924902	92490.1	4
0	926712	92671.1	205
0	927080	92707.9	94
0	930606	93060.5	395
0	931050	93104.9	25
0	931932	93193.1	10
0	934342	93434.1	158
0	936388	93638.7	57
0	937768	93776.7	539
0	937960	93795.9	157
0	939350	93934.9	209
0	939786	93978.5	11
0	940530	94052.9	8
0	941192	94119.1	1
0	942728	94272.7	20
0	944272	94427.1	102
0	945322	94532.1	204
0	946104	94610.3	303
0	946884	94688.3	81
0	948606	94860.5	1
0	950188	95018.7	263
0	950786	95078.5	18
0	951028	95102.7	118
0	953258	95325.7	121
0	954062	95406.1	42
0	956324	95632.3	2
0	956694	95669.3	35
0	958136	95813.5	348
0	959126	95912.5	55
0	959142	95914.1	3
0	959862	95986.1	7
0	960198	96019.7	192
0	961670	96166.9	122
0	962154	96215.3	22
0	964540	96453.9	198
0	967676	96767.5	538
0	967678	96767.7	1
0	968382	96838.1	129
0	973158	97315.7	48
0	974634	97463.3	26
0	975604	97560.3	115
0	976200	97619.9	102
0	978470	97846.9	50
0	978938	97893.7	70
0	980222	98022.1	157
0	981588	98158.7	210
0	982366	98236.5	2
0	984080	98407.9	38
0	984696	98469.5	116
0	985846	98584.5	86
0	986514	98651.3	57
0	988344	98834.3	455
0	988828	98882.7	47
0	989042	98904.1	143
0	989184	98918.3	133
0	990954	99095.3	195
0	992772	99277.1	111
0	993188	99318.7	8
0	993782	99378.1	42
0	995540	99553.9	21
0	996058	99605.7	96
0	996512	99651.1	324
0	998950	99894.9	198
0	999706	99970.5	159
0	999802	99980.1	93
0	1000014	100001.3	160
0	1004616	100461.5	17
0	1006226	100622.5	9
0	1006842	100684.1	50
0	1008536	100853.5	133
0	1008860	100885.9	276
0	1009260	100925.9	36
0	1010458	101045.7	5
0	1010672	101067.1	155
0	1016422	101642.1	72
0	1017696	101769.5	466
0	1018652	101865.1	306
0	1019054	101905.3	32
0	1019284	101928.3	132
0	1019578	101957.7	77
0	1020546	102054.5	142
0	1023136	102313.5	158
0	1024036	102403.5	13
0	1024374	102437.3	114
0	1025360	102535.9	264
0	1027412	102741.1	168
0	1029528	102952.7	369
0	1030962	103096.1	135
0	1031622	103162.1	62
0	1032964	103296.3	71
0	1034244	103424.3	64
0	1034766	103476.5	160
0	1036788	103678.7	67
0	1038180	103817.9	34
0	1038282	103828.1	7
0	1038914	103891.3	298
0	1040186	104018.5	78
0	1041108	104110.7	15
0	1041352	104135.1	167
0	1044534	104453.3	415
0	1044570	104456.9	10
0	1047244	104724.3	30
0	1047370	104736.9	64
0	1050936	105093.5	1
0	1051510	105150.9	40
0	1057910	105790.9	27
0	1060494	106049.3	7
0	1066242	106624.1	63
0	1066714	106671.3	50
0	1066920	106691.9	116
0	1067530	106752.9	336
0	1071188	107118.7	83
0	1071510	107150.9	116
0	1071616	107161.5	43
0	1072584	107258.3	98
0	1072752	107275.1	118
0	1080280	108027.9	132
0	1081110	108110.9	5
0	1082744	108274.3	13
0	1084414	108441.3	363
0	1085916	108591.5	54
0	1088056	108805.5	96
0	1088082	108808.1	5
0	1089022	108902.1	82
0	1089856	108985.5	2
0	1090822	109082.1	86
0	1090834	109083.3	6
0	1091756	109175.5	250
0	1092102	109210.1	1
0	1092976	109297.5	19
0	1095542	109554.1	37
0	1097670	109766.9	38
0	1097954	109795.3	98
0	1101634	110163.3	235
0	1102192	110219.1	70
0	1102428	110242.7	85
0	1103474	110347.3	33
0	1104068	110406.7	142
0	1104242	110424.1	72
0	1104838	110483.7	61
0	1107680	110767.9	58
0	1109562	110956.1	273
0	1110346	111034.5	33
0	1114632	111463.1	50
0	1115222	111522.1	321
0	1118334	111833.3	37
0	1120080	112007.9	263
0	1121364	112136.3	220
0	1123024	112302.3	45
0	1124336	112433.5	164
0	1125392	112539.1	195
0	1125938	112593.7	149
0	1126354	112635.3	338
0	1128584	112858.3	108
0	1128892	112889.1	3
0	1129538	112953.7	486
0	1130060	113005.9	122
0	1130512	113051.1	13
0	1131278	113127.7	25
0	1131780	113177.9	9
0	1132080	113207.9	49
0	1134174	113417.3	327
0	1136978	113697.7	12
0	1138056	113805.5	22
0	1138278	113827.7	31
0	1138832	113883.1	165
0	1142188	114218.7	153
0	1143046	114304.5	67
0	1143236	114323.5	13
0	1144488	114448.7	133
0	1145380	114537.9	15
0	1145644	114564.3	26
0	1150428	115042.7	15
0	1150920	115091.9	373
0	1151500	115149.9	68
0	1151700	115169.9	194
0	1152734	115273.3	13
0	1152878	115287.7	42
0	1152880	115287.9	1
0	1153846	115384.5	24
0	1153986	115398.5	34
0	1155454	115545.3	223
0	1158178	115817.7	4
0	1160536	116053.5	147
0	1160768	116076.7	172
0	1163588	116358.7	190
0	1164660	116465.9	27
0	1164990	116498.9	42
0	1166916	116691.5	401
0	1168608	116860.7	1
0	1168966	116896.5	13
0	1169246	116924.5	6
0	1169400	116939.9	127
0	1171006	117100.5	22
0	1171962	117196.1	204
0	1173672	117367.1	106
0	1177290	117728.9	178
0	1179730	117972.9	349
0	1180276	118027.5	121
0	1180902	118090.1	45
0	1181558	118155.7	174
0	1182810	118280.9	104
0	1183190	118318.9	157
0	1185632	118563.1	146
0	1188156	118815.5	63
0	1188746	118874.5	39
0	1191918	119191.7	172
0	1192836	119283.5	24
0	1195940	119593.9	104
0	1196586	119658.5	140
0	1199776	119977.5	84
0	1200066	120006.5	257
0	1200288	120028.7	1
0	1200500	120049.9	132
0	1200848	120084.7	140
0	1201244	120124.3	9
0	1201372	120137.1	90
0	1201810	120180.9	287
0	1203476	120347.5	10
0	1205580	120557.9	216
0	1205670	120566.9	23
0	1207562	120756.1	67
0	1208128	120812.7	32
0	1208338	120833.7	159
0	1209226	120922.5	159
0	1214112	121411.1	3
0	1214924	121492.3	69
0	1216558	121655.7	63
0	1217098	121709.7	65
0	1217746	121774.5	205
0	1218166	121816.5	117
0	1218408	121840.7	123
0	1219628	121962.7	26
0	1221624	122162.3	34
0	1221856	122185.5	150
0	1224518	122451.7	86
0	1226004	122600.3	37
0	1226146	122614.5	31
0	1229102	122910.1	226
0	1229956	122995.5	78
0	1235488	123548.7	9
0	1238778	123877.7	499
0	1239110	123910.9	95
0	1241064	124106.3	21
0	1241610	124160.9	26
0	1242508	124250.7	3
0	1243002	124300.1	100
0	1245100	124509.9	6
0	1245574	124557.3	8
0	1248114	124811.3	154
0	1248948	124894.7	31
0	1249532	124953.1	117
0	1251396	125139.5	15
0	1252116	125211.5	229
0	1252738	125273.7	74
0	1253052	125305.1	10
0	1258060	125805.9	25
0	1258810	125880.9	501
0	1261542	126154.1	115
0	1262628	126262.7	9
0	1263514	126351.3	3
0	1263924	126392.3	75
0	1267338	126733.7	26
0	1268280	126827.9	158
0	1268712	126871.1	302
0	1268836	126883.5	29
0	1269520	126951.9	33
0	1270366	127036.5	219
0	1270954	127095.3	1
0	1273536	127353.5	291
0	1274152	127415.1	158
0	1274740	127473.9	304
0	1275238	127523.7	6
0	1275350	127534.9	57
0	1277748	127774.7	419
0	1278352	127835.1	1
0	1278664	127866.3	180
0	1279204	127920.3	78
0	1284046	128404.5	1
0	1284498	128449.7	41
0	1285608	128560.7	87
0	1287302	128730.1	96
0	1287786	128778.5	136
0	1288700	128869.9	7
0	1289748	128974.7	3
0	1290362	129036.1	204
0	1292908	129290.7	352
0	1294038	129403.7	25
0	1298174	129817.3	47
0	1298526	129852.5	8
0	1300370	130036.9	175
0	1300964	130096.3	109
0	1302684	130268.3	47
0	1304020	130401.9	819
0	1305574	130557.3	112
0	1307704	130770.3	131
0	1310804	131080.3	157
0	1312226	131222.5	141
0	1312496	131249.5	62
0	1317392	131739.1	237
0	1318152	131815.1	119
0	1321330	132132.9	114
0	1323726	132372.5	289
0	1324358	132435.7	11
0	1326002	132600.1	282
0	1327102	132710.1	50
0	1329254	132925.3	6
0	1331794	133179.3	59
0	1332586	133258.5	392
0	1333020	133301.9	135
0	1334016	133401.5	128
0	1334596	133459.5	36
0	1338914	133891.3	160
0	1339438	133943.7	21
0	1339836	133983.5	187
0	1341918	134191.7	28
0	1342284	134228.3	51
0	1344042	134404.1	83
0	1346088	134608.7	13
0	1346564	134656.3	14
0	1346986	134698.5	170
0	1348702	134870.1	116
0	1349368	134936.7	26
0	1349446	134944.5	50
0	1351936	135193.5	2
0	1352762	135276.1	6
0	1353212	135321.1	313
0	1354266	135426.5	48
0	1357106	135710.5	13
0	1359370	135936.9	146
0	1360198	136019.7	140
0	1360322	136032.1	33
0	1360760	136075.9	66
0	1360808	136080.7	6
0	1361976	136197.5	16
0	1362376	136237.5	38
0	1363702	136370.1	41
0	1363814	136381.3	84
0	1367588	136758.7	143
0	1368104	136810.3	2
0	1368252	136825.1	79
0	1369588	136958.7	253
0	1370568	137056.7	143
0	1372256	137225.5	31
0	1375428	137542.7	156
0	1376234	137623.3	85
0	1376680	137667.9	251
0	1377372	137737.1	1
0	1378198	137819.7	324
0	1378842	137884.1	232
0	1379512	137951.1	232
0	1379704	137970.3	18
0	1379922	137992.1	96
0	1383046	138304.5	9
0	1386636	138663.5	312
0	1387896	138789.5	18
0	1388556	138855.5	25
0	1393346	139334.5	102
0	1393538	139353.7	113
0	1394004	139400.3	10
0	1394524	139452.3	35
0	1397832	139783.1	14
0	1398002	139800.1	45
0	1398180	139817.9	24
0	1399268	139926.7	243
0	1400216	140021.5	121
0	1400806	140080.5	61
0	1402734	140273.3	310
0	1403304	140330.3	78
0	1404024	140402.3	231
0	1404406	140440.5	80
0	1407078	140707.7	193
0	1408942	140894.1	334
0	1411450	141144.9	111
0	1411950	141194.9	389
0	1412544	141254.3	26
0	1416926	141692.5	48
0	1417088	141708.7	34
0	1418292	141829.1	5
0	1419418	141941.7	39
0	1420178	142017.7	23
0	1421434	142143.3	9
0	1423032	142303.1	23
0	1424884	142488.3	146
0	1426024	142602.3	1
0	1426498	142649.7	313
0	1430590	143058.9	150
0	1431748	143174.7	8
0	1432412	143241.1	5
0	1434484	143448.3	45
0	1437682	143768.1	126
0	1438332	143833.1	34
0	1439084	143908.3	113
0	1443544	144354.3	202
0	1444732	144473.1	152
0	1445264	144526.3	12
0	1445340	144533.9	4
0	1446006	144600.5	21
0	1447366	144736.5	74
0	1448622	144862.1	13
0	1451590	145158.9	605
0	1451600	145159.9	3
0	1451900	145189.9	133
0	1452190	145218.9	34
0	1452936	145293.5	118
0	1454178	145417.7	184
0	1454530	145452.9	34
0	1455382	145538.1	398
0	1455660	145565.9	66
0	1455740	145573.9	38
0	1456168	145616.7	172
0	1457000	145699.9	185
0	1458226	145822.5	355
0	1458526	145852.5	43
0	1460126	146012.5	24
0	1460222	146022.1	81
0	1460522	146052.1	1
0	1461196	146119.5	49
0	1462178	146217.7	184
0	1462256	146225.5	31
0	1462382	146238.1	8
0	1464440	146443.9	265
0	1465590	146558.9	83
0	1468922	146892.1	1
0	1469900	146989.9	198
0	1473292	147329.1	58
0	1473838	147383.7	144
0	1475032	147503.1	154
0	1475388	147538.7	1
0	1475504	147550.3	37
0	1476960	147695.9	24
0	1480918	148091.7	192
0	1480926	148092.5	6
0	1483152	148315.1	3
0	1483592	148359.1	185
0	1483760	148375.9	55
0	1485626	148562.5	3
0	1486340	148633.9	40
0	1486726	148672.5	8
0	1490064	149006.3	1126
0	1491142	149114.1	1
0	1491166	149116.5	9
0	1492364	149236.3	530
0	1492600	149259.9	82
0	1493680	149367.9	43
0	1494058	149405.7	102
0	1494334	149433.3	102
0	1495990	149598.9	22
0	1497740	149773.9	26
0	1500064	150006.3	14
0	1500736	150073.5	94
0	1503068	150306.7	228
0	1503968	150396.7	46
0	1505328	150532.7	409
0	1505830	150582.9	161
0	1506126	150612.5	51
0	1507760	150775.9	197
0	1510454	151045.3	191
0	1510728	151072.7	90
0	1513662	151366.1	12
0	1514846	151484.5	95
0	1516046	151604.5	125
0	1519616	151961.5	63
0	1520282	152028.1	190
0	1520556	152055.5	171
0	1522040	152203.9	104
0	1523596	152359.5	148
0	1525234	152523.3	60
0	1526384	152638.3	141
0	1527612	152761.1	60
0	1530530	153052.9	89
0	1531144	153114.3	3
0	1532056	153205.5	1
0	1533482	153348.1	151
0	1534770	153476.9	53
0	1537768	153776.7	64
0	1538690	153868.9	1
0	1539052	153905.1	105
0	1539240	153923.9	16
0	1541868	154186.7	192
0	1545052	154505.1	53
0	1545606	154560.5	71
0	1546760	154675.9	107
0	1548252	154825.1	240
0	1551074	155107.3	179
0	1551434	155143.3	73
0	1551908	155190.7	20
0	1552104	155210.3	58
0	1552928	155292.7	383
0	1553102	155310.1	101
0	1553396	155339.5	4
0	1554646	155464.5	181
0	1558378	155837.7	518
0	1558456	155845.5	38
0	1559450	155944.9	193
0	1559676	155967.5	58
0	1561544	156154.3	33
0	1562108	156210.7	55
0	1564268	156426.7	136
0	1564756	156475.5	140
0	1568074	156807.3	167
0	1568480	156847.9	339
0	1569580	156957.9	116
0	1570074	157007.3	9
0	1571006	157100.5	189
0	1571340	157133.9	95
0	1572224	157222.3	47
0	1573896	157389.5	33
0	1575740	157573.9	213
0	1576206	157620.5	278
0	1576526	157652.5	85
0	1578690	157868.9	3
0	1581010	158100.9	119
0	1584280	158427.9	8
0	1584886	158488.5	31
0	1585138	158513.7	49
0	1589744	158974.3	75
0	1590304	159030.3	237
0	1591136	159113.5	534
0	1591726	159172.5	223
0	1593352	159335.1	129
0	1595692	159569.1	67
0	1596060	159605.9	356
0	1596280	159627.9	29
0	1597222	159722.1	46
0	1599712	159971.1	42
0	1599822	159982.1	71
0	1600250	160024.9	127
0	1601442	160144.1	626
0	1602094	160209.3	218
0	1602494	160249.3	114
0	1602810	160280.9	59
0	1604606	160460.5	117
0	1608488	160848.7	56
0	1609316	160931.5	7
0	1610072	161007.1	78
0	1611850	161184.9	11
0	1613384	161338.3	176
0	1613530	161352.9	95
0	1614428	161442.7	5
0	1616126	161612.5	17
0	1617372	161737.1	43
0	1617732	161773.1	41
0	1619844	161984.3	327
0	1619984	161998.3	64
0	1623074	162307.3	53
0	1627404	162740.3	93
0	1628360	162835.9	114
0	1630034	163003.3	362
0	1631702	163170.1	205
0	1634338	163433.7	326
0	1635198	163519.7	17
0	1635796	163579.5	27
0	1636084	163608.3	286
0	1637010	163700.9	23
0	1637604	163760.3	139
0	1638818	163881.7	195
0	1639602	163960.1	248
0	1640092	164009.1	107
0	1640668	164066.7	65
0	1642196	164219.5	18
0	1644726	164472.5	74
0	1646486	164648.5	88
0	1646934	164693.3	85
0	1648428	164842.7	83
0	1650080	165007.9	97
0	1656370	165636.9	14
0	1656788	165678.7	225
0	1658132	165813.1	101
0	1658936	165893.5	7
0	1659666	165966.5	153
0	1660178	166017.7	344
0	1660930	166092.9	138
0	1661126	166112.5	105
0	1662044	166204.3	313
0	1662352	166235.1	10