version 3
run General-112-20230611-05:41:40-416630
attr configname General
attr datetime 20230611-05:41:40
attr datetimef 20230611-054140
attr experiment General
attr inifile omnetpp.ini
attr iterationvars $N=88
attr iterationvarsd N=88
attr iterationvarsf N=88-
attr measurement $N=88
attr network LN
attr processid 416630
attr repetition 0
attr replication #0
attr resultdir results
attr runnumber 112
attr seedset 112
itervar N 88
config network LN
config sim-time-limit 250000s
config **.tic[*].hopCount.result-recording-modes +vector
config *.numCentralNodes 88
config repeat 4

vector 0 LN.lnd[5] hopCount:vector ETV
attr interpolationmode none
attr recordingmode vector
attr source arrival
attr title "hop count"
vector 1 LN.lnd[8] hopCount:vector ETV
attr interpolationmode none
attr recordingmode vector
attr source arrival
attr title "hop count"
vector 2 LN.lnd[9] hopCount:vector ETV
attr interpolationmode none
attr recordingmode vector
attr source arrival
attr title "hop count"
vector 3 LN.lnd[6] hopCount:vector ETV
attr interpolationmode none
attr recordingmode vector
attr source arrival
attr title "hop count"
vector 4 LN.lnd[1] hopCount:vector ETV
attr interpolationmode none
attr recordingmode vector
attr source arrival
attr title "hop count"
vector 5 LN.lnd[19] hopCount:vector ETV
attr interpolationmode none
attr recordingmode vector
attr source arrival
attr title "hop count"
vector 6 LN.lnd[18] hopCount:vector ETV
attr interpolationmode none
attr recordingmode vector
attr source arrival
attr title "hop count"
vector 7 LN.lnd[12] hopCount:vector ETV
attr interpolationmode none
attr recordingmode vector
attr source arrival
attr title "hop count"
vector 8 LN.lnd[13] hopCount:vector ETV
attr interpolationmode none
attr recordingmode vector
attr source arrival
attr title "hop count"
vector 9 LN.lnd[17] hopCount:vector ETV
attr interpolationmode none
attr recordingmode vector
attr source arrival
attr title "hop count"
vector 10 LN.lnd[7] hopCount:vector ETV
attr interpolationmode none
attr recordingmode vector
attr source arrival
attr title "hop count"
vector 11 LN.lnd[11] hopCount:vector ETV
attr interpolationmode none
attr recordingmode vector
attr source arrival
attr title "hop count"
vector 12 LN.lnd[15] hopCount:vector ETV
attr interpolationmode none
attr recordingmode vector
attr source arrival
attr title "hop count"
vector 13 LN.lnd[2] hopCount:vector ETV
attr interpolationmode none
attr recordingmode vector
attr source arrival
attr title "hop count"
vector 14 LN.lnd[14] hopCount:vector ETV
attr interpolationmode none
attr recordingmode vector
attr source arrival
attr title "hop count"
vector 15 LN.lnd[0] hopCount:vector ETV
attr interpolationmode none
attr recordingmode vector
attr source arrival
attr title "hop count"
vector 16 LN.lnd[3] hopCount:vector ETV
attr interpolationmode none
attr recordingmode vector
attr source arrival
attr title "hop count"
vector 17 LN.lnd[16] hopCount:vector ETV
attr interpolationmode none
attr recordingmode vector
attr source arrival
attr title "hop count"
vector 18 LN.lnd[4] hopCount:vector ETV
attr interpolationmode none
attr recordingmode vector
attr source arrival
attr title "hop count"
vector 19 LN.lnd[10] hopCount:vector ETV
attr interpolationmode none
attr recordingmode vector
attr source arrival
attr title "hop count"
0	69	6.8	68
0	1649	164.8	9
0	1783	178.2	20
0	2097	209.6	90
0	2559	255.8	64
0	5981	598	14
0	7447	744.6	30
0	9229	922.8	55
0	9305	930.4	24
0	10757	1075.6	7
0	12029	1202.8	4
0	14027	1402.6	26
0	15747	1574.6	35
0	15777	1577.6	15
0	16295	1629.4	1
0	16315	1631.4	6
0	16705	1670.4	17
0	20785	2078.4	2
0	20977	2097.6	72
0	21897	2189.6	1
0	22735	2273.4	6
0	23101	2310	69
0	24437	2443.6	1
0	25253	2525.2	72
0	25485	2548.4	28
0	25537	2553.6	46
0	25945	2594.4	9
0	29365	2936.4	1
0	31925	3192.4	41
0	33135	3313.4	4
0	33377	3337.6	14
0	35163	3516.2	19
0	35387	3538.6	4
0	35771	3577	208
0	36565	3656.4	131
0	37815	3781.4	18
0	39559	3955.8	2
0	40535	4053.4	3
0	42743	4274.2	136
0	44281	4428	16
0	47115	4711.4	21
0	48963	4896.2	24
0	50355	5035.4	19
0	52231	5223	103
0	52615	5261.4	22
0	54585	5458.4	7
0	54831	5483	77
0	57437	5743.6	109
0	59489	5948.8	54
0	59881	5988	87
0	60241	6024	161
0	60829	6082.8	18
0	61171	6117	43
0	63541	6354	1
0	64843	6484.2	1
0	65891	6589	34
0	66011	6601	48
0	66259	6625.8	17
0	69615	6961.4	194
0	71575	7157.4	83
0	72275	7227.4	2
0	73185	7318.4	1
0	74505	7450.4	5
0	76171	7617	4
0	76297	7629.6	1
0	79711	7971	1
0	80569	8056.8	217
0	84865	8486.4	11
0	88863	8886.2	27
0	89941	8994	4
0	92069	9206.8	18
0	92369	9236.8	1
0	97877	9787.6	19
0	101151	10115	33
0	101785	10178.4	95
0	101807	10180.6	13
0	102615	10261.4	93
0	103079	10307.8	44
0	103785	10378.4	150
0	106899	10689.8	2
0	108431	10843	49
0	109907	10990.6	1
0	110811	11081	9
0	113819	11381.8	2
0	116007	11600.6	33
0	118441	11844	9
0	123199	12319.8	48
0	123543	12354.2	4
0	124135	12413.4	16
0	126735	12673.4	51
0	127437	12743.6	76
0	127559	12755.8	27
0	128209	12820.8	26
0	128485	12848.4	8
0	132839	13283.8	53
0	133499	13349.8	2
0	135367	13536.6	119
0	136815	13681.4	17
0	137135	13713.4	2
0	140801	14080	156
0	140841	14084	10
0	143759	14375.8	43
0	144463	14446.2	75
0	145353	14535.2	59
0	147151	14715	1
0	148393	14839.2	14
0	154853	15485.2	44
0	156063	15606.2	19
0	156675	15667.4	1
0	156821	15682	33
0	157237	15723.6	43
0	157279	15727.8	4
0	160403	16040.2	29
0	160647	16064.6	1
0	162761	16276	25
0	163027	16302.6	60
0	163495	16349.4	86
0	164393	16439.2	57
0	164785	16478.4	38
0	169787	16978.6	1
0	172835	17283.4	85
0	174319	17431.8	10
0	174371	17437	41
0	176853	17685.2	1
0	179713	17971.2	19
0	180027	18002.6	58
0	180745	18074.4	105
0	180849	18084.8	3
0	182737	18273.6	39
0	189599	18959.8	100
0	190669	19066.8	14
0	193145	19314.4	14
0	195803	19580.2	1
0	196127	19612.6	8
0	196695	19669.4	9
0	198821	19882	2
0	200287	20028.6	57
0	201647	20164.6	6
0	203029	20302.8	21
0	203429	20342.8	120
0	205911	20591	2
0	206349	20634.8	29
0	207507	20750.6	12
0	209809	20980.8	128
0	211137	21113.6	28
0	213105	21310.4	42
0	214171	21417	15
0	215139	21513.8	60
0	217649	21764.8	1
0	218361	21836	46
0	220723	22072.2	5
0	221121	22112	31
0	222057	22205.6	66
0	222775	22277.4	4
0	223903	22390.2	1
0	224919	22491.8	18
0	225033	22503.2	25
0	228017	22801.6	10
0	228727	22872.6	1
0	229585	22958.4	20
0	235929	23592.8	49
0	240165	24016.4	28
0	241773	24177.2	118
0	242043	24204.2	20
0	245233	24523.2	59
0	245499	24549.8	9
0	246017	24601.6	24
0	246819	24681.8	13
0	248009	24800.8	17
0	249061	24906	52
0	249125	24912.4	8
0	253625	25362.4	73
0	255935	25593.4	57
0	257261	25726	2
0	257347	25734.6	1
0	258373	25837.2	1
0	260173	26017.2	10
0	263343	26334.2	46
0	264781	26478	12
0	265007	26500.6	15
0	265785	26578.4	1
0	266193	26619.2	13
0	266743	26674.2	16
0	266903	26690.2	1
0	267589	26758.8	1
0	267629	26762.8	2
0	272525	27252.4	1
0	273029	27302.8	115
0	273201	27320	141
0	275095	27509.4	4
0	279933	27993.2	1
0	282787	28278.6	32
0	284483	28448.2	8
0	284953	28495.2	6
0	286281	28628	3
0	286871	28687	5
0	287013	28701.2	16
0	288069	28806.8	9
0	288279	28827.8	26
0	289301	28930	22
0	289325	28932.4	12
0	290173	29017.2	124
0	290209	29020.8	30
0	290493	29049.2	2
0	292391	29239	2
0	292785	29278.4	60
0	293313	29331.2	22
0	295899	29589.8	3
0	297353	29735.2	2
0	297583	29758.2	2
0	298485	29848.4	16
0	298687	29868.6	25
0	299175	29917.4	248
0	302279	30227.8	127
0	302369	30236.8	59
0	304659	30465.8	66
0	305087	30508.6	27
0	305195	30519.4	70
0	307799	30779.8	3
0	309709	30970.8	10
0	311889	31188.8	25
0	312423	31242.2	166
0	312651	31265	23
0	314579	31457.8	122
0	315173	31517.2	49
0	315413	31541.2	1
0	315549	31554.8	55
0	317013	31701.2	7
0	317139	31713.8	6
0	318285	31828.4	1
0	322625	32262.4	11
0	322771	32277	19
0	324457	32445.6	55
0	325709	32570.8	147
0	326167	32616.6	25
0	326971	32697	108
0	327893	32789.2	25
0	328121	32812	185
0	329557	32955.6	56
0	331919	33191.8	33
0	332065	33206.4	1
0	332595	33259.4	10
0	335427	33542.6	64
0	337905	33790.4	274
0	338577	33857.6	1
0	339505	33950.4	43
0	341533	34153.2	6
0	341981	34198	11
0	342283	34228.2	21
0	345949	34594.8	5
0	346157	34615.6	35
0	346941	34694	2
0	348915	34891.4	1
0	350095	35009.4	17
0	350679	35067.8	20
0	350899	35089.8	85
0	351683	35168.2	6
0	353271	35327	52
0	353967	35396.6	2
0	354629	35462.8	13
0	356639	35663.8	212
0	356951	35695	1
0	357149	35714.8	69
0	357477	35747.6	59
0	357729	35772.8	5
0	358051	35805	2
0	360585	36058.4	217
0	361971	36197	10
0	363891	36389	32
0	363913	36391.2	1
0	364837	36483.6	6
0	365783	36578.2	3
0	366841	36684	39
0	374603	37460.2	23
0	375935	37593.4	1
0	376651	37665	13
0	377705	37770.4	70
0	378283	37828.2	1
0	380319	38031.8	1
0	383561	38356	1
0	384641	38464	1
0	384805	38480.4	68
0	384823	38482.2	13
0	385009	38500.8	2
0	385347	38534.6	1
0	386339	38633.8	16
0	388055	38805.4	45
0	390573	39057.2	43
0	390701	39070	33
0	395567	39556.6	1
0	398665	39866.4	74
0	398959	39895.8	1
0	400935	40093.4	1
0	403953	40395.2	24
0	405243	40524.2	4
0	407611	40761	2
0	411345	41134.4	16
0	412005	41200.4	21
0	412651	41265	40
0	415567	41556.6	12
0	418917	41891.6	145
0	418985	41898.4	58
0	420149	42014.8	3
0	421129	42112.8	12
0	423567	42356.6	63
0	427377	42737.6	216
0	428989	42898.8	170
0	429827	42982.6	14
0	429877	42987.6	24
0	430335	43033.4	4
0	432221	43222	20
0	437651	43765	3
0	439401	43940	112
0	440909	44090.8	63
0	441975	44197.4	1
0	442587	44258.6	39
0	443571	44357	2
0	443617	44361.6	2
0	444585	44458.4	57
0	445117	44511.6	16
0	445311	44531	56
0	446651	44665	8
0	446925	44692.4	3
0	447781	44778	179
0	447947	44794.6	11
0	451899	45189.8	1
0	452873	45287.2	11
0	454283	45428.2	17
0	455895	45589.4	205
0	456013	45601.2	9
0	456947	45694.6	107
0	457311	45731	88
0	459527	45952.6	1
0	460193	46019.2	57
0	460323	46032.2	1
0	463573	46357.2	1
0	464497	46449.6	70
0	466027	46602.6	6
0	466091	46609	48
0	466811	46681	47
0	467417	46741.6	26
0	469319	46931.8	96
0	470939	47093.8	18
0	471299	47129.8	45
0	471539	47153.8	26
0	471687	47168.6	1
0	471833	47183.2	5
0	472423	47242.2	17
0	473701	47370	24
0	480417	48041.6	19
0	481035	48103.4	8
0	481837	48183.6	35
0	482421	48242	26
0	484967	48496.6	74
0	487855	48785.4	246
0	491071	49107	2
0	491565	49156.4	209
0	492821	49282	67
0	493643	49364.2	38
0	498771	49877	78
0	499583	49958.2	14
0	501027	50102.6	10
0	501185	50118.4	6
0	502945	50294.4	1
0	503909	50390.8	22
0	506559	50655.8	7
0	507455	50745.4	86
0	509117	50911.6	1
0	509573	50957.2	20
0	509887	50988.6	29
0	511863	51186.2	4
0	512379	51237.8	97
0	512381	51238	1
0	513273	51327.2	79
0	517565	51756.4	17
0	517923	51792.2	5
0	519907	51990.6	21
0	520627	52062.6	76
0	520813	52081.2	81
0	521159	52115.8	87
0	524887	52488.6	28
0	525497	52549.6	3
0	527193	52719.2	2
0	527667	52766.6	1
0	528355	52835.4	4
0	529401	52940	4
0	529607	52960.6	148
0	530325	53032.4	4
0	530869	53086.8	1
0	531761	53176	129
0	533007	53300.6	4
0	535927	53592.6	127
0	536233	53623.2	1
0	537751	53775	22
0	537977	53797.6	1
0	538371	53837	13
0	540143	54014.2	28
0	540629	54062.8	4
0	542359	54235.8	3
0	544505	54450.4	7
0	544617	54461.6	1
0	549839	54983.8	6
0	550077	55007.6	9
0	551515	55151.4	2
0	555049	55504.8	38
0	556185	55618.4	38
0	557359	55735.8	5
0	564929	56492.8	5
0	567417	56741.6	5
0	568427	56842.6	101
0	568637	56863.6	38
0	569329	56932.8	1
0	569883	56988.2	43
0	570383	57038.2	421
0	571237	57123.6	5
0	571551	57155	6
0	574299	57429.8	84
0	575071	57507	1
0	575809	57580.8	10
0	576391	57639	20
0	579731	57973	90
0	580191	58019	6
0	581699	58169.8	18
0	582581	58258	3
0	583541	58354	26
0	583709	58370.8	1
0	585483	58548.2	1
0	586733	58673.2	1
0	587061	58706	1
0	587189	58718.8	7
0	587839	58783.8	86
0	587911	58791	1
0	588445	58844.4	10
0	589419	58941.8	51
0	590953	59095.2	6
0	595367	59536.6	31
0	596583	59658.2	213
0	598753	59875.2	34
0	600155	60015.4	83
0	600647	60064.6	1
0	603293	60329.2	1
0	607107	60710.6	11
0	607519	60751.8	1
0	608443	60844.2	17
0	608609	60860.8	144
0	609169	60916.8	145
0	610639	61063.8	11
0	613159	61315.8	30
0	614283	61428.2	7
0	614787	61478.6	10
0	615297	61529.6	2
0	616259	61625.8	4
0	618567	61856.6	11
0	621859	62185.8	14
0	623055	62305.4	47
0	623537	62353.6	111
0	624459	62445.8	1
0	625117	62511.6	10
0	626489	62648.8	114
0	627177	62717.6	41
0	628083	62808.2	1
0	628475	62847.4	4
0	630577	63057.6	79
0	632709	63270.8	49
0	634089	63408.8	43
0	635731	63573	47
0	636833	63683.2	74
0	636929	63692.8	90
0	638109	63810.8	56
0	640949	64094.8	4
0	641195	64119.4	149
0	641615	64161.4	118
0	642235	64223.4	7
0	643887	64388.6	71
0	645631	64563	19
0	645903	64590.2	68
0	647115	64711.4	10
0	648419	64841.8	42
0	649503	64950.2	6
0	651093	65109.2	94
0	651829	65182.8	16
0	651917	65191.6	1
0	653359	65335.8	1
0	654499	65449.8	32
0	654703	65470.2	46
0	657091	65709	1
0	658619	65861.8	27
0	659401	65940	1
0	664169	66416.8	1
0	664231	66423	1
0	664415	66441.4	36
0	664815	66481.4	84
0	665813	66581.2	92
0	668595	66859.4	19
0	668735	66873.4	20
0	669577	66957.6	142
0	671405	67140.4	9
0	671577	67157.6	2
0	672627	67262.6	37
0	675423	67542.2	5
0	675675	67567.4	123
0	677867	67786.6	2
0	679045	67904.4	11
0	682647	68264.6	1
0	684917	68491.6	29
0	687799	68779.8	40
0	691403	69140.2	198
0	691507	69150.6	24
0	692137	69213.6	48
0	692599	69259.8	5
0	695603	69560.2	87
0	698067	69806.6	45
0	700409	70040.8	1
0	701949	70194.8	81
0	702535	70253.4	117
0	704377	70437.6	9
0	705817	70581.6	60
0	706289	70628.8	209
0	707305	70730.4	25
0	707521	70752	1
0	708181	70818	197
0	710187	71018.6	2
0	710841	71084	24
0	712457	71245.6	174
0	713443	71344.2	63
0	714915	71491.4	44
0	721021	72102	1
0	723007	72300.6	112
0	724097	72409.6	41
0	724161	72416	1
0	724703	72470.2	2
0	726463	72646.2	1
0	730051	73005	31
0	730427	73042.6	20
0	731169	73116.8	64
0	731261	73126	37
0	732557	73255.6	108
0	733407	73340.6	2
0	733651	73365	1
0	735159	73515.8	1
0	736991	73699	4
0	737307	73730.6	114
0	738209	73820.8	8
0	739185	73918.4	31
0	740463	74046.2	3
0	741147	74114.6	174
0	742521	74252	1
0	744271	74427	11
0	746167	74616.6	24
0	747489	74748.8	33
0	748077	74807.6	7
0	748883	74888.2	240
0	750137	75013.6	1
0	750665	75066.4	106
0	751341	75134	11
0	752207	75220.6	84
0	752415	75241.4	11
0	756115	75611.4	18
0	757319	75731.8	129
0	758045	75804.4	254
0	760421	76042	2
0	761007	76100.6	80
0	762475	76247.4	1
0	765949	76594.8	162
0	765997	76599.6	8
0	766093	76609.2	2
0	767785	76778.4	52
0	770221	77022	1
0	772171	77217	45
0	772719	77271.8	6
0	773403	77340.2	1
0	773909	77390.8	119
0	776347	77634.6	1
0	776995	77699.4	21
0	778053	77805.2	215
0	778643	77864.2	78
0	778805	77880.4	16
0	780107	78010.6	92
0	780377	78037.6	4
0	783041	78304	72
0	783829	78382.8	244
0	784077	78407.6	134
0	785457	78545.6	1
0	785931	78593	25
0	787755	78775.4	27
0	788327	78832.6	1
0	788955	78895.4	57
0	791577	79157.6	92
0	792423	79242.2	1
0	794057	79405.6	51
0	794845	79484.4	181
0	795171	79517	157
0	795229	79522.8	26
0	795381	79538	28
0	796245	79624.4	5
0	796403	79640.2	30
0	796735	79673.4	11
0	798309	79830.8	63
0	800321	80032	18
0	801971	80197	8
0	803213	80321.2	1
0	808871	80887	142
0	809921	80992	7
0	810179	81017.8	10
0	811157	81115.6	1
0	813135	81313.4	88
0	814019	81401.8	78
0	815009	81500.8	65
0	821325	82132.4	157
0	821481	82148	1
0	823497	82349.6	87
0	823555	82355.4	14
0	824197	82419.6	58
0	825187	82518.6	3
0	825499	82549.8	170
0	829083	82908.2	181
0	833291	83329	1
0	834759	83475.8	52
0	838455	83845.4	20
0	839575	83957.4	32
0	839727	83972.6	8
0	840565	84056.4	114
0	841217	84121.6	92
0	842089	84208.8	1
0	842837	84283.6	2
0	844273	84427.2	148
0	844693	84469.2	21
0	846033	84603.2	5
0	854949	85494.8	37
0	855177	85517.6	29
0	856075	85607.4	1
0	859765	85976.4	5
0	862047	86204.6	1
0	862231	86223	50
0	862717	86271.6	1
0	864583	86458.2	2
0	867057	86705.6	7
0	867719	86771.8	86
0	869435	86943.4	2
0	869511	86951	7
0	871425	87142.4	8
0	875445	87544.4	16
0	876547	87654.6	74
0	879669	87966.8	190
0	881839	88183.8	1
0	881991	88199	2
0	882425	88242.4	239
0	884297	88429.6	12
0	889105	88910.4	11
0	889741	88974	2
0	890199	89019.8	15
0	890667	89066.6	52
0	891605	89160.4	4
0	892909	89290.8	2
0	895121	89512	78
0	900601	90060	132
0	901655	90165.4	85
0	902419	90241.8	1
0	902559	90255.8	16
0	904965	90496.4	33
0	905797	90579.6	1
0	907257	90725.6	31
0	907615	90761.4	50
0	909915	90991.4	79
0	910123	91012.2	51
0	912783	91278.2	112
0	915069	91506.8	27
0	915611	91561	2
0	916155	91615.4	141
0	916377	91637.6	22
0	917117	91711.6	19
0	917365	91736.4	83
0	917463	91746.2	80
0	917705	91770.4	216
0	917819	91781.8	7
0	918931	91893	100
0	919637	91963.6	93
0	919705	91970.4	14
0	919913	91991.2	202
0	921785	92178.4	4
0	922131	92213	169
0	922225	92222.4	6
0	923325	92332.4	3
0	923589	92358.8	2
0	924483	92448.2	69
0	925261	92526	105
0	931545	93154.4	6
0	934169	93416.8	1
0	935141	93514	129
0	935925	93592.4	22
0	936191	93619	1
0	936739	93673.8	180
0	941771	94177	1
0	942593	94259.2	2
0	943525	94352.4	30
0	944391	94439	4
0	944591	94459	48
0	945653	94565.2	21
0	949721	94972	8
0	951899	95189.8	5
0	952465	95246.4	11
0	960099	96009.8	38
0	960915	96091.4	10
0	962021	96202	1
0	962729	96272.8	27
0	963049	96304.8	35
0	963745	96374.4	4
0	964099	96409.8	30
0	965009	96500.8	48
0	967885	96788.4	2
0	970093	97009.2	122
0	972167	97216.6	112
0	973773	97377.2	103
0	974061	97406	13
0	974563	97456.2	8
0	975395	97539.4	97
0	976469	97646.8	40
0	976661	97666	36
0	979879	97987.8	1
0	980479	98047.8	10
0	981053	98105.2	5
0	982151	98215	8
0	982241	98224	35
0	983409	98340.8	55
0	985735	98573.4	20
0	985959	98595.8	11
0	988077	98807.6	71
0	988139	98813.8	4
0	991721	99172	23
0	992227	99222.6	25
0	995475	99547.4	4
0	996093	99609.2	1
0	996401	99640	108
0	996735	99673.4	10
0	997165	99716.4	54
0	998599	99859.8	47
0	999341	99934	5
0	1000527	100052.6	11
0	1001355	100135.4	27
0	1002463	100246.2	76
0	1005813	100581.2	52
0	1006061	100606	6
0	1007555	100755.4	44
0	1009965	100996.4	59
0	1010809	101080.8	1
0	1013247	101324.6	16
0	1013839	101383.8	48
0	1015865	101586.4	1
0	1016809	101680.8	1
0	1017471	101747	1
0	1017853	101785.2	17
0	1019671	101967	45
0	1021533	102153.2	79
0	1021743	102174.2	71
0	1021841	102184	6
0	1021937	102193.6	49
0	1023011	102301	87
0	1029967	102996.6	115
0	1030127	103012.6	59
0	1030371	103037	2
0	1030791	103079	11
0	1031013	103101.2	3
0	1031309	103130.8	20
0	1031473	103147.2	1
0	1035279	103527.8	157
0	1037881	103788	168
0	1038321	103832	112
0	1039385	103938.4	3
0	1040765	104076.4	64
0	1043277	104327.6	36
0	1044247	104424.6	41
0	1044647	104464.6	2
0	1047331	104733	25
0	1047835	104783.4	69
0	1051123	105112.2	6
0	1057165	105716.4	15
0	1058365	105836.4	68
0	1059405	105940.4	3
0	1059971	105997	94
0	1060625	106062.4	20
0	1062033	106203.2	62
0	1062101	106210	1
0	1062289	106228.8	2
0	1062777	106277.6	59
0	1062865	106286.4	1
0	1063265	106326.4	50
0	1063587	106358.6	5
0	1064383	106438.2	20
0	1065271	106527	4
0	1065443	106544.2	6
0	1066227	106622.6	1
0	1066285	106628.4	1
0	1066835	106683.4	7
0	1066853	106685.2	1
0	1067225	106722.4	1
0	1067561	106756	30
0	1067813	106781.2	1
0	1068461	106846	85
0	1070473	107047.2	16
0	1071525	107152.4	195
0	1071875	107187.4	15
0	1072655	107265.4	81
0	1073353	107335.2	1
0	1074833	107483.2	27
0	1076865	107686.4	113
0	1079771	107977	2
0	1082467	108246.6	66
0	1083343	108334.2	38
0	1084565	108456.4	125
0	1085829	108582.8	66
0	1086871	108687	1
0	1089293	108929.2	24
0	1089545	108954.4	5
0	1091991	109199	1
0	1092067	109206.6	16
0	1093537	109353.6	2
0	1094903	109490.2	94
0	1095359	109535.8	1
0	1095563	109556.2	15
0	1097131	109713	2
0	1097751	109775	59
0	1097841	109784	44
0	1098251	109825	171
0	1102091	110209	2
0	1103563	110356.2	11
0	1104609	110460.8	12
0	1106471	110647	1
0	1106973	110697.2	98
0	1108591	110859	1
0	1112995	111299.4	8
0	1115063	111506.2	88
0	1115135	111513.4	52
0	1115269	111526.8	8
0	1116067	111606.6	10
0	1120139	112013.8	44
0	1121473	112147.2	1
0	1122953	112295.2	21
0	1125823	112582.2	115
0	1128787	112878.6	3
0	1129127	112912.6	47
0	1132131	113213	7
0	1132189	113218.8	4
0	1134229	113422.8	33
0	1134493	113449.2	67
0	1139563	113956.2	100
0	1142553	114255.2	6
0	1143707	114370.6	35
0	1144167	114416.6	2
0	1148329	114832.8	1
0	1149589	114958.8	11
0	1150851	115085	8
0	1151005	115100.4	28
0	1151367	115136.6	13
0	1152213	115221.2	110
0	1153087	115308.6	52
0	1153299	115329.8	5
0	1153881	115388	14
0	1155545	115554.4	4
0	1156579	115657.8	1
0	1156891	115689	11
0	1157395	115739.4	22
0	1157427	115742.6	4
0	1157575	115757.4	48
0	1159471	115947	75
0	1160207	116020.6	7
0	1160407	116040.6	5
0	1162851	116285	40
0	1163665	116366.4	122
0	1165451	116545	33
0	1166271	116627	1
0	1166647	116664.6	3
0	1167777	116777.6	111
0	1168023	116802.2	69
0	1170517	117051.6	31
0	1172797	117279.6	66
0	1173637	117363.6	1
0	1176517	117651.6	70
0	1177855	117785.4	204
0	1178159	117815.8	12
0	1179509	117950.8	2
0	1179643	117964.2	7
0	1181909	118190.8	34
0	1182645	118264.4	181
0	1184373	118437.2	6
0	1184859	118485.8	25
0	1187689	118768.8	164
0	1187951	118795	1
0	1188405	118840.4	1
0	1189005	118900.4	113
0	1190797	119079.6	179
0	1190835	119083.4	13
0	1193893	119389.2	74
0	1194209	119420.8	47
0	1196219	119621.8	115
0	1197145	119714.4	2
0	1197657	119765.6	10
0	1198291	119829	58
0	1198405	119840.4	16
0	1198565	119856.4	13
0	1198663	119866.2	74
0	1199599	119959.8	1
0	1200569	120056.8	79
0	1200657	120065.6	10
0	1201941	120194	167
0	1202111	120211	4
0	1203677	120367.6	124
0	1203873	120387.2	14
0	1204179	120417.8	1
0	1204735	120473.4	2
0	1205329	120532.8	213
0	1206021	120602	33
0	1206555	120655.4	39
0	1208601	120860	22
0	1208651	120865	3
0	1211213	121121.2	6
0	1211633	121163.2	2
0	1212149	121214.8	26
0	1212843	121284.2	4
0	1213365	121336.4	36
0	1215443	121544.2	195
0	1216441	121644	14
0	1220357	122035.6	46
0	1221507	122150.6	139
0	1222933	122293.2	15
0	1225571	122557	1
0	1226041	122604	25
0	1226393	122639.2	40
0	1232185	123218.4	70
0	1233607	123360.6	191
0	1233861	123386	22
0	1234289	123428.8	49
0	1235283	123528.2	5
0	1237877	123787.6	23
0	1238187	123818.6	81
0	1238803	123880.2	5
0	1239601	123960	30
0	1239913	123991.2	228
0	1240127	124012.6	30
0	1242149	124214.8	38
0	1242791	124279	22
0	1243077	124307.6	84
0	1247265	124726.4	7
0	1247533	124753.2	14
0	1249987	124998.6	161
0	1251055	125105.4	2
0	1252103	125210.2	103
0	1252453	125245.2	102
0	1252457	125245.6	1
0	1252673	125267.2	97
0	1253005	125300.4	53
0	1253143	125314.2	34
0	1254453	125445.2	23
0	1255629	125562.8	217
0	1257383	125738.2	1
0	1257439	125743.8	23
0	1259743	125974.2	1
0	1260733	126073.2	11
0	1260873	126087.2	21
0	1262325	126232.4	46
0	1262397	126239.6	2
0	1262581	126258	56
0	1264391	126439	201
0	1266531	126653	216
0	1267475	126747.4	6
0	1268193	126819.2	16
0	1268413	126841.2	4
0	1268473	126847.2	8
0	1270257	127025.6	19
0	1273323	127332.2	52
0	1276255	127625.4	24
0	1276601	127660	1
0	1278213	127821.2	66
0	1278327	127832.6	67
0	1280279	128027.8	45
0	1281859	128185.8	31
0	1282509	128250.8	18
0	1283483	128348.2	55
0	1283723	128372.2	6
0	1283749	128374.8	8
0	1284625	128462.4	53
0	1284747	128474.6	11
0	1285557	128555.6	74
0	1285887	128588.6	76
0	1286055	128605.4	37
0	1286487	128648.6	4
0	1289227	128922.6	2
0	1294427	129442.6	28
0	1294817	129481.6	11
0	1296883	129688.2	93
0	1302485	130248.4	2
0	1302563	130256.2	64
0	1303737	130373.6	23
0	1306287	130628.6	21
0	1308221	130822	36
0	1309273	130927.2	9
0	1312247	131224.6	21
0	1314063	131406.2	38
0	1315755	131575.4	29
0	1316299	131629.8	8
0	1317909	131790.8	1
0	1322161	132216	3
0	1322365	132236.4	133
0	1323671	132367	63
0	1324051	132405	2
0	1325055	132505.4	74
0	1325505	132550.4	1
0	1325669	132566.8	10
0	1327347	132734.6	1
0	1331479	133147.8	3
0	1332251	133225	4
0	1333705	133370.4	1
0	1334519	133451.8	45
0	1335129	133512.8	1
0	1336339	133633.8	12
0	1336999	133699.8	164
0	1337803	133780.2	66
0	1338635	133863.4	107
0	1339175	133917.4	54
0	1340235	134023.4	14
0	1340641	134064	75
0	1340849	134084.8	5
0	1344399	134439.8	27
0	1344645	134464.4	2
0	1345081	134508	166
0	1345299	134529.8	1
0	1348759	134875.8	109
0	1349293	134929.2	71
0	1349861	134986	15
0	1349937	134993.6	1
0	1352347	135234.6	24
0	1352957	135295.6	47
0	1353083	135308.2	2
0	1354167	135416.6	4
0	1356377	135637.6	37
0	1357095	135709.4	12
0	1358389	135838.8	19
0	1358703	135870.2	1
0	1360003	136000.2	54
0	1360053	136005.2	28
0	1361615	136161.4	2
0	1361951	136195	2
0	1363125	136312.4	16
0	1363599	136359.8	14
0	1365497	136549.6	2
0	1366889	136688.8	17
0	1367643	136764.2	4
0	1371937	137193.6	11
0	1373385	137338.4	30
0	1373539	137353.8	30
0	1376373	137637.2	100
0	1376867	137686.6	17
0	1379009	137900.8	28
0	1379845	137984.4	15
0	1380107	138010.6	1
0	1381343	138134.2	14
0	1383245	138324.4	79
0	1384999	138499.8	40
0	1385277	138527.6	70
0	1386021	138602	32
0	1387409	138740.8	83
0	1389617	138961.6	124
0	1389765	138976.4	27
0	1389893	138989.2	8
0	1390009	139000.8	38
0	1392085	139208.4	42
0	1395669	139566.8	16
0	1395853	139585.2	45
0	1396373	139637.2	1
0	1397455	139745.4	66
0	1397593	139759.2	85
0	1399033	139903.2	26
0	1400669	140066.8	1
0	1401071	140107	3
0	1401119	140111.8	20
0	1401435	140143.4	26
0	1403245	140324.4	294
0	1404745	140474.4	1
0	1405669	140566.8	2
0	1406899	140689.8	20
0	1406947	140694.6	18
0	1407373	140737.2	155
0	1409261	140926	26
0	1410991	141099	105
0	1411211	141121	107
0	1411413	141141.2	31
0	1414235	141423.4	22
0	1414477	141447.6	39
0	1414813	141481.2	1
0	1415041	141504	25
0	1415255	141525.4	76
0	1415873	141587.2	2
0	1416343	141634.2	25
0	1419071	141907	32
0	1419423	141942.2	19
0	1419745	141974.4	114
0	1420459	142045.8	35
0	1425799	142579.8	12
0	1426503	142650.2	4
0	1427743	142774.2	5
0	1428727	142872.6	8
0	1438637	143863.6	1
0	1439253	143925.2	25
0	1439273	143927.2	10
0	1442731	144273	1
0	1443647	144364.6	16
0	1443875	144387.4	116
0	1446123	144612.2	210
0	1451153	145115.2	4
0	1451977	145197.6	6
0	1454253	145425.2	291
0	1457517	145751.6	45
0	1457851	145785	105
0	1459005	145900.4	6
0	1462099	146209.8	228
0	1462287	146228.6	26
0	1464061	146406	91
0	1464265	146426.4	5
0	1465351	146535	2
0	1467107	146710.6	6
0	1467111	146711	1
0	1468363	146836.2	2
0	1471041	147104	8
0	1472761	147276	8
0	1472961	147296	122
0	1473369	147336.8	8
0	1473947	147394.6	38
0	1475207	147520.6	2
0	1476077	147607.6	13
0	1477523	147752.2	1
0	1477693	147769.2	8
0	1478659	147865.8	118
0	1479435	147943.4	70
0	1479981	147998	39
0	1480223	148022.2	2
0	1480585	148058.4	44
0	1482747	148274.6	299
0	1483523	148352.2	1
0	1484367	148436.6	14
0	1484443	148444.2	8
0	1485757	148575.6	1
0	1487611	148761	108
0	1488943	148894.2	31
0	1491689	149168.8	5
0	1492597	149259.6	10
0	1493335	149333.4	46
0	1494231	149423	23
0	1496059	149605.8	28
0	1497753	149775.2	31
0	1498703	149870.2	39
0	1499423	149942.2	61
0	1500461	150046	1
0	1501331	150133	10
0	1504931	150493	87
0	1508137	150813.6	164
0	1508917	150891.6	111
0	1509883	150988.2	8
0	1510317	151031.6	1
0	1510803	151080.2	1
0	1510879	151087.8	44
0	1511499	151149.8	36
0	1511931	151193	8
0	1512243	151224.2	46
0	1512643	151264.2	2
0	1513439	151343.8	39
0	1513863	151386.2	4
0	1514461	151446	136
0	1514607	151460.6	35
0	1515435	151543.4	2
0	1515475	151547.4	8
0	1516183	151618.2	49
0	1517915	151791.4	46
0	1518099	151809.8	110
0	1521643	152164.2	58
0	1522773	152277.2	6
0	1522897	152289.6	69
0	1525931	152593	6
0	1526313	152631.2	44
0	1529777	152977.6	74
0	1530351	153035	26
0	1530479	153047.8	6
0	1534381	153438	30
0	1534419	153441.8	29
0	1534559	153455.8	111
0	1536743	153674.2	90
0	1537273	153727.2	41
0	1538295	153829.4	86
0	1538643	153864.2	1
0	1540485	154048.4	26
0	1541139	154113.8	10
0	1544365	154436.4	1
0	1544707	154470.6	9
0	1547077	154707.6	1
0	1547383	154738.2	12
0	1549745	154974.4	70
0	1549887	154988.6	1
0	1552939	155293.8	264
0	1554569	155456.8	67
0	1555901	155590	1
0	1555935	155593.4	11
0	1556597	155659.6	53
0	1558811	155881	15
0	1559545	155954.4	1
0	1560555	156055.4	63
0	1560991	156099	3
0	1562007	156200.6	96
0	1573087	157308.6	1
0	1573811	157381	1
0	1574155	157415.4	26
0	1574789	157478.8	76
0	1574821	157482	17
0	1576725	157672.4	24
0	1579783	157978.2	1
0	1581387	158138.6	86
0	1582999	158299.8	24
0	1583041	158304	16
0	1583591	158359	1
0	1584427	158442.6	3
0	1584897	158489.6	1
0	1586963	158696.2	39
0	1587763	158776.2	64
0	1588693	158869.2	188
0	1590393	159039.2	2
0	1593247	159324.6	6
0	1594405	159440.4	2
0	1595221	159522	1
0	1595313	159531.2	59
0	1595453	159545.2	5
0	1598439	159843.8	2
0	1598467	159846.6	9
0	1600703	160070.2	65
0	1603037	160303.6	2
0	1604643	160464.2	11
0	1606975	160697.4	24
0	1609095	160909.4	47
0	1609503	160950.2	31
0	1609647	160964.6	99
0	1611149	161114.8	6
0	1612215	161221.4	23
0	1612365	161236.4	4
0	1612615	161261.4	8
0	1614375	161437.4	6
0	1614571	161457	16
0	1615669	161566.8	59
0	1615943	161594.2	1
0	1617481	161748	6
0	1618127	161812.6	11
0	1619319	161931.8	76
0	1619617	161961.6	11
0	1619899	161989.8	42
0	1621453	162145.2	44
0	1621621	162162	113
0	1623675	162367.4	25
0	1624433	162443.2	86
0	1624577	162457.6	20
0	1626045	162604.4	126
0	1627315	162731.4	35
0	1627631	162763	58
0	1628857	162885.6	38
0	1629137	162913.6	1
0	1629383	162938.2	1
0	1631015	163101.4	220
0	1633293	163329.2	51
0	1633483	163348.2	2
0	1635403	163540.2	36
0	1636241	163624	21
0	1636443	163644.2	11
0	1637205	163720.4	44
0	1639287	163928.6	107
0	1639707	163970.6	128
0	1640169	164016.8	21
0	1641789	164178.8	27
0	1642103	164210.2	1
0	1642755	164275.4	129
0	1644791	164479	5
0	1644947	164494.6	3
0	1645297	164529.6	1
0	1646159	164615.8	20
0	1647255	164725.4	3
0	1647691	164769	83
0	1649245	164924.4	25
0	1649459	164945.8	143
0	1650257	165025.6	87
0	1654925	165492.4	6
0	1658497	165849.6	7
0	1659913	165991.2	4
0	1659955	165995.4	3
0	1661763	166176.2	14
0	1662793	166279.2	1
0	1662979	166297.8	42
0	1666253	166625.2	92
0	1666843	166684.2	24
0	1667543	166754.2	44
0	1668963	166896.2	21
0	1671311	167131	23
0	1672415	167241.4	139
0	1675823	167582.2	17
0	1676395	167639.4	15
0	1677303	167730.2	24
0	1679041	167904	16
0	1680443	168044.2	38
0	1681141	168114	17
0	1683619	168361.8	161
0	1684413	168441.2	4
0	1684573	168457.2	123
0	1686739	168673.8	58
0	1687789	168778.8	27
0	1687851	168785	29
0	1687949	168794.8	65
0	1691951	169195	10
0	1696135	169613.4	1
0	1696929	169692.8	75
0	1697187	169718.6	8
0	1697933	169793.2	14
0	1698081	169808	1
0	1699261	169926	3
0	1699519	169951.8	2
0	1701795	170179.4	21
0	1701969	170196.8	40
0	1702265	170226.4	2
0	1703409	170340.8	1
0	1704195	170419.4	156
0	1704715	170471.4	34
0	1705095	170509.4	1