version 3
run General-104-20230611-05:41:38-416612
attr configname General
attr datetime 20230611-05:41:38
attr datetimef 20230611-054138
attr experiment General
attr inifile omnetpp.ini
attr iterationvars $N=82
attr iterationvarsd N=82
attr iterationvarsf N=82-
attr measurement $N=82
attr network LN
attr processid 416612
attr repetition 0
attr replication #0
attr resultdir results
attr runnumber 104
attr seedset 104
itervar N 82
config network LN
config sim-time-limit 250000s
config **.tic[*].hopCount.result-recording-modes +vector
config *.numCentralNodes 82
config repeat 4

vector 0 LN.lnd[6] hopCount:vector ETV
attr interpolationmode none
attr recordingmode vector
attr source arrival
attr title "hop count"
vector 1 LN.lnd[7] hopCount:vector ETV
attr interpolationmode none
attr recordingmode vector
attr source arrival
attr title "hop count"
vector 2 LN.lnd[10] hopCount:vector ETV
attr interpolationmode none
attr recordingmode vector
attr source arrival
attr title "hop count"
vector 3 LN.lnd[8] hopCount:vector ETV
attr interpolationmode none
attr recordingmode vector
attr source arrival
attr title "hop count"
vector 4 LN.lnd[3] hopCount:vector ETV
attr interpolationmode none
attr recordingmode vector
attr source arrival
attr title "hop count"
vector 5 LN.lnd[2] hopCount:vector ETV
attr interpolationmode none
attr recordingmode vector
attr source arrival
attr title "hop count"
vector 6 LN.lnd[17] hopCount:vector ETV
attr interpolationmode none
attr recordingmode vector
attr source arrival
attr title "hop count"
vector 7 LN.lnd[0] hopCount:vector ETV
attr interpolationmode none
attr recordingmode vector
attr source arrival
attr title "hop count"
vector 8 LN.lnd[13] hopCount:vector ETV
attr interpolationmode none
attr recordingmode vector
attr source arrival
attr title "hop count"
vector 9 LN.lnd[9] hopCount:vector ETV
attr interpolationmode none
attr recordingmode vector
attr source arrival
attr title "hop count"
vector 10 LN.lnd[1] hopCount:vector ETV
attr interpolationmode none
attr recordingmode vector
attr source arrival
attr title "hop count"
vector 11 LN.lnd[4] hopCount:vector ETV
attr interpolationmode none
attr recordingmode vector
attr source arrival
attr title "hop count"
vector 12 LN.lnd[19] hopCount:vector ETV
attr interpolationmode none
attr recordingmode vector
attr source arrival
attr title "hop count"
vector 13 LN.lnd[14] hopCount:vector ETV
attr interpolationmode none
attr recordingmode vector
attr source arrival
attr title "hop count"
vector 14 LN.lnd[15] hopCount:vector ETV
attr interpolationmode none
attr recordingmode vector
attr source arrival
attr title "hop count"
vector 15 LN.lnd[12] hopCount:vector ETV
attr interpolationmode none
attr recordingmode vector
attr source arrival
attr title "hop count"
vector 16 LN.lnd[5] hopCount:vector ETV
attr interpolationmode none
attr recordingmode vector
attr source arrival
attr title "hop count"
vector 17 LN.lnd[16] hopCount:vector ETV
attr interpolationmode none
attr recordingmode vector
attr source arrival
attr title "hop count"
vector 18 LN.lnd[11] hopCount:vector ETV
attr interpolationmode none
attr recordingmode vector
attr source arrival
attr title "hop count"
vector 19 LN.lnd[18] hopCount:vector ETV
attr interpolationmode none
attr recordingmode vector
attr source arrival
attr title "hop count"
0	40	3.9	39
0	512	51.1	15
0	724	72.3	32
0	1002	100.1	78
0	1078	107.7	19
0	1700	169.9	2
0	2154	215.3	105
0	4768	476.7	3
0	5982	598.1	4
0	7286	728.5	5
0	7970	796.9	29
0	10206	1020.5	7
0	11936	1193.5	2
0	12026	1202.5	12
0	15304	1530.3	2
0	17136	1713.5	48
0	17782	1778.1	30
0	19762	1976.1	94
0	21940	2193.9	40
0	23980	2397.9	153
0	24922	2492.1	93
0	25042	2504.1	2
0	26522	2652.1	111
0	27044	2704.3	7
0	28046	2804.5	62
0	34198	3419.7	31
0	36506	3650.5	1
0	37482	3748.1	11
0	39532	3953.1	67
0	42076	4207.5	203
0	43570	4356.9	168
0	44194	4419.3	14
0	44438	4443.7	1
0	44518	4451.7	6
0	46394	4639.3	179
0	46672	4667.1	52
0	47512	4751.1	22
0	48102	4810.1	47
0	48592	4859.1	36
0	50484	5048.3	36
0	53448	5344.7	4
0	53616	5361.5	59
0	53910	5390.9	31
0	55596	5559.5	94
0	56726	5672.5	13
0	58196	5819.5	108
0	60264	6026.3	18
0	62866	6286.5	6
0	63178	6317.7	3
0	63850	6384.9	13
0	64616	6461.5	21
0	65276	6527.5	8
0	65638	6563.7	19
0	66986	6698.5	18
0	69008	6900.7	97
0	69460	6945.9	251
0	69578	6957.7	2
0	70758	7075.7	216
0	73580	7357.9	134
0	75608	7560.7	47
0	76366	7636.5	63
0	77344	7734.3	3
0	80100	8009.9	13
0	83370	8336.9	14
0	84064	8406.3	68
0	84546	8454.5	49
0	84750	8474.9	89
0	86648	8664.7	24
0	86806	8680.5	51
0	86870	8686.9	1
0	90236	9023.5	25
0	91240	9123.9	2
0	93590	9358.9	39
0	93782	9378.1	4
0	94494	9449.3	83
0	95478	9547.7	300
0	96326	9632.5	3
0	96516	9651.5	103
0	97174	9717.3	31
0	97530	9752.9	130
0	101014	10101.3	220
0	102278	10227.7	39
0	104492	10449.1	52
0	104950	10494.9	4
0	106174	10617.3	136
0	107380	10737.9	25
0	108584	10858.3	51
0	108732	10873.1	1
0	112254	11225.3	12
0	115266	11526.5	113
0	115504	11550.3	9
0	119754	11975.3	12
0	120642	12064.1	107
0	122366	12236.5	30
0	122696	12269.5	54
0	124434	12443.3	4
0	126032	12603.1	13
0	126288	12628.7	14
0	126858	12685.7	9
0	130974	13097.3	12
0	131088	13108.7	31
0	132898	13289.7	28
0	135034	13503.3	21
0	135746	13574.5	11
0	136918	13691.7	13
0	138040	13803.9	37
0	139760	13975.9	26
0	141046	14104.5	50
0	141518	14151.7	178
0	142884	14288.3	226
0	143416	14341.5	7
0	144318	14431.7	138
0	144762	14476.1	24
0	145106	14510.5	2
0	145862	14586.1	71
0	147052	14705.1	27
0	147700	14769.9	120
0	148792	14879.1	51
0	150444	15044.3	58
0	151674	15167.3	131
0	151928	15192.7	17
0	152384	15238.3	32
0	152986	15298.5	4
0	154416	15441.5	3
0	158592	15859.1	45
0	159510	15950.9	5
0	161094	16109.3	62
0	161246	16124.5	145
0	161442	16144.1	78
0	162874	16287.3	28
0	164214	16421.3	16
0	165092	16509.1	34
0	165718	16571.7	8
0	167554	16755.3	60
0	167804	16780.3	10
0	169972	16997.1	22
0	170252	17025.1	21
0	171672	17167.1	61
0	173894	17389.3	63
0	174126	17412.5	11
0	175382	17538.1	40
0	175822	17582.1	9
0	179068	17906.7	35
0	181004	18100.3	19
0	182426	18242.5	6
0	184286	18428.5	22
0	185874	18587.3	12
0	188238	18823.7	5
0	190374	19037.3	25
0	193570	19356.9	57
0	195302	19530.1	1
0	196886	19688.5	5
0	199030	19902.9	41
0	199226	19922.5	84
0	201648	20164.7	187
0	202436	20243.5	4
0	203006	20300.5	50
0	205092	20509.1	29
0	208436	20843.5	114
0	209494	20949.3	50
0	210212	21021.1	1
0	211054	21105.3	51
0	212088	21208.7	231
0	212396	21239.5	89
0	212590	21258.9	44
0	213160	21315.9	87
0	213942	21394.1	66
0	214808	21480.7	223
0	218902	21890.1	22
0	221908	22190.7	15
0	222482	22248.1	211
0	223408	22340.7	15
0	226408	22640.7	3
0	226428	22642.7	10
0	226804	22680.3	206
0	229040	22903.9	201
0	230908	23090.7	32
0	234830	23482.9	39
0	234894	23489.3	11
0	235262	23526.1	79
0	238188	23818.7	110
0	238664	23866.3	14
0	239142	23914.1	24
0	242554	24255.3	187
0	243818	24381.7	1
0	245680	24567.9	79
0	245984	24598.3	33
0	247528	24752.7	45
0	247688	24768.7	21
0	247722	24772.1	12
0	247940	24793.9	54
0	249786	24978.5	37
0	250406	25040.5	127
0	251016	25101.5	2
0	253576	25357.5	6
0	254352	25435.1	19
0	258842	25884.1	53
0	260590	26058.9	23
0	266508	26650.7	9
0	266568	26656.7	4
0	267974	26797.3	77
0	268308	26830.7	9
0	268932	26893.1	61
0	272606	27260.5	16
0	273456	27345.5	36
0	273942	27394.1	64
0	274484	27448.3	4
0	278854	27885.3	123
0	282076	28207.5	204
0	282780	28277.9	6
0	284548	28454.7	43
0	285680	28567.9	136
0	285790	28578.9	68
0	286892	28689.1	45
0	291876	29187.5	41
0	292200	29219.9	66
0	293190	29318.9	7
0	296466	29646.5	66
0	296774	29677.3	93
0	300276	30027.5	10
0	301490	30148.9	1
0	302580	30257.9	19
0	305242	30524.1	91
0	305532	30553.1	7
0	306360	30635.9	170
0	307046	30704.5	2
0	307398	30739.7	40
0	309200	30919.9	15
0	309826	30982.5	21
0	311686	31168.5	31
0	314580	31457.9	38
0	316280	31627.9	23
0	321944	32194.3	4
0	322466	32246.5	16
0	323246	32324.5	86
0	326436	32643.5	68
0	329254	32925.3	84
0	331462	33146.1	262
0	331810	33180.9	7
0	332370	33236.9	336
0	332458	33245.7	34
0	336326	33632.5	5
0	339204	33920.3	4
0	339598	33959.7	82
0	340810	34080.9	3
0	342178	34217.7	5
0	345714	34571.3	5
0	347480	34747.9	55
0	349376	34937.5	96
0	351868	35186.7	164
0	357086	35708.5	41
0	357722	35772.1	40
0	358224	35822.3	77
0	358396	35839.5	29
0	358682	35868.1	17
0	359342	35934.1	11
0	359574	35957.3	7
0	359772	35977.1	45
0	360890	36088.9	43
0	361410	36140.9	9
0	362350	36234.9	4
0	363918	36391.7	22
0	364314	36431.3	13
0	364690	36468.9	30
0	365828	36582.7	50
0	367910	36790.9	15
0	370702	37070.1	2
0	371300	37129.9	39
0	373288	37328.7	64
0	373946	37394.5	9
0	374418	37441.7	5
0	377184	37718.3	39
0	378912	37891.1	12
0	380066	38006.5	154
0	383254	38325.3	86
0	386440	38643.9	113
0	387684	38768.3	8
0	388954	38895.3	18
0	389820	38981.9	98
0	392358	39235.7	9
0	392932	39293.1	4
0	395580	39557.9	81
0	401736	40173.5	33
0	404424	40442.3	23
0	405160	40515.9	210
0	405804	40580.3	49
0	407988	40798.7	5
0	408502	40850.1	4
0	408886	40888.5	11
0	409958	40995.7	71
0	410080	41007.9	13
0	411384	41138.3	53
0	414012	41401.1	93
0	414196	41419.5	33
0	414700	41469.9	47
0	414762	41476.1	13
0	415734	41573.3	24
0	416442	41644.1	118
0	416728	41672.7	167
0	416888	41688.7	59
0	418692	41869.1	136
0	418912	41891.1	14
0	419974	41997.3	2
0	420126	42012.5	132
0	421104	42110.3	2
0	423834	42383.3	176
0	424206	42420.5	25
0	424944	42494.3	9
0	426866	42686.5	25
0	426996	42699.5	27
0	431486	43148.5	33
0	435308	43530.7	42
0	436556	43655.5	108
0	437510	43750.9	68
0	438472	43847.1	4
0	438912	43891.1	206
0	440260	44025.9	16
0	443042	44304.1	63
0	444540	44453.9	60
0	446694	44669.3	48
0	446872	44687.1	15
0	448782	44878.1	23
0	451434	45143.3	62
0	453938	45393.7	225
0	454070	45406.9	2
0	454880	45487.9	6
0	455730	45572.9	6
0	456722	45672.1	78
0	457118	45711.7	62
0	458432	45843.1	61
0	460084	46008.3	179
0	461820	46181.9	53
0	462144	46214.3	136
0	462626	46262.5	19
0	465036	46503.5	166
0	466906	46690.5	63
0	466988	46698.7	47
0	471812	47181.1	47
0	472372	47237.1	9
0	472684	47268.3	9
0	475392	47539.1	37
0	476666	47666.5	84
0	477008	47700.7	209
0	479452	47945.1	73
0	482090	48208.9	4
0	483150	48314.9	9
0	483824	48382.3	55
0	484310	48430.9	231
0	485502	48550.1	17
0	485670	48566.9	3
0	487148	48714.7	94
0	487552	48755.1	6
0	488960	48895.9	115
0	489482	48948.1	45
0	491880	49187.9	26
0	492796	49279.5	97
0	496140	49613.9	83
0	496292	49629.1	40
0	497044	49704.3	32
0	497502	49750.1	124
0	500398	50039.7	3
0	501114	50111.3	11
0	501864	50186.3	22
0	506180	50617.9	61
0	506392	50639.1	59
0	507926	50792.5	36
0	509392	50939.1	246
0	512866	51286.5	47
0	515804	51580.3	77
0	516736	51673.5	1
0	519288	51928.7	62
0	519760	51975.9	5
0	520004	52000.3	47
0	520666	52066.5	31
0	521262	52126.1	11
0	521332	52133.1	12
0	521732	52173.1	49
0	523634	52363.3	31
0	524854	52485.3	66
0	525274	52527.3	177
0	529084	52908.3	14
0	531204	53120.3	6
0	533134	53313.3	30
0	536222	53622.1	3
0	536530	53652.9	59
0	540556	54055.5	4
0	540760	54075.9	108
0	541684	54168.3	32
0	543132	54313.1	57
0	544220	54421.9	54
0	547132	54713.1	60
0	547680	54767.9	120
0	548352	54835.1	64
0	548440	54843.9	61
0	550108	55010.7	92
0	550348	55034.7	187
0	552626	55262.5	3
0	555948	55594.7	31
0	558826	55882.5	140
0	561130	56112.9	2
0	563200	56319.9	57
0	564258	56425.7	60
0	564778	56477.7	263
0	568448	56844.7	64
0	571486	57148.5	64
0	574766	57476.5	87
0	576434	57643.3	11
0	576786	57678.5	8
0	578052	57805.1	151
0	578526	57852.5	40
0	583746	58374.5	52
0	584636	58463.5	112
0	584894	58489.3	108
0	585838	58583.7	110
0	588110	58810.9	35
0	589350	58934.9	6
0	589494	58949.3	19
0	589954	58995.3	20
0	591684	59168.3	69
0	592228	59222.7	162
0	594014	59401.3	9
0	594752	59475.1	99
0	595530	59552.9	58
0	599228	59922.7	3
0	599318	59931.7	60
0	604714	60471.3	177
0	604904	60490.3	4
0	608310	60830.9	61
0	609656	60965.5	119
0	609846	60984.5	20
0	610682	61068.1	2
0	611454	61145.3	10
0	612606	61260.5	20
0	613094	61309.3	32
0	613190	61318.9	6
0	613642	61364.1	92
0	613844	61384.3	66
0	616600	61659.9	31
0	616804	61680.3	2
0	616890	61688.9	30
0	617464	61746.3	14
0	620366	62036.5	10
0	621956	62195.5	47
0	622612	62261.1	55
0	623584	62358.3	166
0	625274	62527.3	108
0	631206	63120.5	391
0	631466	63146.5	111
0	631984	63198.3	63
0	634442	63444.1	25
0	634474	63447.3	5
0	637266	63726.5	9
0	637366	63736.5	10
0	637496	63749.5	46
0	637706	63770.5	8
0	639732	63973.1	51
0	640082	64008.1	20
0	645694	64569.3	16
0	645780	64577.9	5
0	647986	64798.5	50
0	648606	64860.5	19
0	650488	65048.7	36
0	654324	65432.3	36
0	655328	65532.7	109
0	656658	65665.7	59
0	656938	65693.7	21
0	659286	65928.5	60
0	660194	66019.3	35
0	660866	66086.5	60
0	661368	66136.7	28
0	661658	66165.7	4
0	662844	66284.3	19
0	665654	66565.3	57
0	665918	66591.7	9
0	667100	66709.9	37
0	669228	66922.7	21
0	670312	67031.1	95
0	675646	67564.5	75
0	675770	67576.9	76
0	678726	67872.5	84
0	680874	68087.3	29
0	682252	68225.1	4
0	684838	68483.7	150
0	685216	68521.5	5
0	686180	68617.9	100
0	686454	68645.3	54
0	686564	68656.3	3
0	686872	68687.1	232
0	687218	68721.7	15
0	687684	68768.3	76
0	687972	68797.1	82
0	692332	69233.1	38
0	692790	69278.9	89
0	693918	69391.7	13
0	699584	69958.3	13
0	700772	70077.1	25
0	701858	70185.7	77
0	703980	70397.9	6
0	705652	70565.1	2
0	707014	70701.3	50
0	710918	71091.7	71
0	713808	71380.7	184
0	713880	71387.9	54
0	714548	71454.7	59
0	715442	71544.1	153
0	715992	71599.1	20
0	718408	71840.7	59
0	719786	71978.5	157
0	720918	72091.7	55
0	721924	72192.3	24
0	724058	72405.7	60
0	728602	72860.1	31
0	728790	72878.9	86
0	730182	73018.1	365
0	730430	73042.9	127
0	730500	73049.9	19
0	731296	73129.5	335
0	732440	73243.9	20
0	732472	73247.1	17
0	733182	73318.1	14
0	735168	73516.7	105
0	738744	73874.3	37
0	739550	73954.9	317
0	740900	74089.9	3
0	743220	74321.9	337
0	743478	74347.7	65
0	744082	74408.1	48
0	745690	74568.9	60
0	746328	74632.7	229
0	746514	74651.3	110
0	747812	74781.1	73
0	748074	74807.3	23
0	750050	75004.9	76
0	750426	75042.5	3
0	751160	75115.9	61
0	752182	75218.1	14
0	753626	75362.5	25
0	753906	75390.5	140
0	754790	75478.9	4
0	756026	75602.5	8
0	757486	75748.5	30
0	759844	75984.3	57
0	761410	76140.9	1
0	761528	76152.7	30
0	761854	76185.3	140
0	762554	76255.3	176
0	765048	76504.7	61
0	765874	76587.3	174
0	767206	76720.5	98
0	768322	76832.1	8
0	768940	76893.9	155
0	769680	76967.9	68
0	770106	77010.5	1
0	770592	77059.1	14
0	771960	77195.9	111
0	772016	77201.5	30
0	772612	77261.1	130
0	774070	77406.9	48
0	774630	77462.9	70
0	784740	78473.9	40
0	785876	78587.5	70
0	785970	78596.9	3
0	787204	78720.3	47
0	789042	78904.1	133
0	790682	79068.1	67
0	790906	79090.5	62
0	795046	79504.5	73
0	797492	79749.1	23
0	798198	79819.7	27
0	798480	79847.9	34
0	798782	79878.1	63
0	800780	80077.9	25
0	801460	80145.9	36
0	802614	80261.3	3
0	804100	80409.9	49
0	804956	80495.5	36
0	806598	80659.7	28
0	807050	80704.9	47
0	808078	80807.7	1
0	812140	81213.9	165
0	815160	81515.9	16
0	815222	81522.1	43
0	815384	81538.3	82
0	816588	81658.7	10
0	817600	81759.9	26
0	818688	81868.7	90
0	819332	81933.1	47
0	819448	81944.7	22
0	819644	81964.3	32
0	820038	82003.7	3
0	821812	82181.1	13
0	822108	82210.7	1
0	822484	82248.3	65
0	823432	82343.1	18
0	823820	82381.9	15
0	825466	82546.5	36
0	830002	83000.1	1
0	830656	83065.5	76
0	831578	83157.7	27
0	833010	83300.9	61
0	833446	83344.5	249
0	834934	83493.3	6
0	836046	83604.5	30
0	837086	83708.5	94
0	837876	83787.5	15
0	839080	83907.9	42
0	839562	83956.1	75
0	840104	84010.3	233
0	840534	84053.3	25
0	842406	84240.5	11
0	843056	84305.5	16
0	844614	84461.3	75
0	844980	84497.9	29
0	846384	84638.3	122
0	847468	84746.7	31
0	847802	84780.1	99
0	847936	84793.5	71
0	848648	84864.7	14
0	850238	85023.7	9
0	853672	85367.1	160
0	854096	85409.5	3
0	855438	85543.7	66
0	856130	85612.9	112
0	856422	85642.1	98
0	856610	85660.9	2
0	857230	85722.9	1
0	859830	85982.9	11
0	859928	85992.7	3
0	861082	86108.1	23
0	861862	86186.1	61
0	862020	86201.9	2
0	862534	86253.3	49
0	863060	86305.9	19
0	864938	86493.7	118
0	865496	86549.5	75
0	865788	86578.7	14
0	865970	86596.9	65
0	868812	86881.1	79
0	869250	86924.9	84
0	869636	86963.5	83
0	870110	87010.9	44
0	870766	87076.5	1
0	870834	87083.3	3
0	870974	87097.3	57
0	871514	87151.3	91
0	873008	87300.7	13
0	874338	87433.7	15
0	874476	87447.5	44
0	874950	87494.9	2
0	875716	87571.5	129
0	876640	87663.9	49
0	876988	87698.7	73
0	879918	87991.7	8
0	882738	88273.7	82
0	885322	88532.1	93
0	886016	88601.5	12
0	886518	88651.7	99
0	888270	88826.9	95
0	890952	89095.1	82
0	892456	89245.5	39
0	893224	89322.3	89
0	893634	89363.3	130
0	895060	89505.9	2
0	897454	89745.3	3
0	897614	89761.3	56
0	898278	89827.7	94
0	898418	89841.7	44
0	898624	89862.3	114
0	899088	89908.7	49
0	901664	90166.3	76
0	902110	90210.9	6
0	904764	90476.3	172
0	907622	90762.1	14
0	909746	90974.5	16
0	910996	91099.5	47
0	912012	91201.1	21
0	912662	91266.1	72
0	913390	91338.9	18
0	915308	91530.7	30
0	917076	91707.5	20
0	921718	92171.7	3
0	922852	92285.1	8
0	922960	92295.9	9
0	923340	92333.9	6
0	923552	92355.1	9
0	924412	92441.1	9
0	926014	92601.3	32
0	926520	92651.9	115
0	926988	92698.7	114
0	927552	92755.1	168
0	928484	92848.3	1
0	928886	92888.5	68
0	931810	93180.9	2
0	932182	93218.1	7
0	932470	93246.9	14
0	933838	93383.7	111
0	938400	93839.9	17
0	939068	93906.7	10
0	942638	94263.7	23
0	943550	94354.9	3
0	944470	94446.9	249
0	948852	94885.1	149
0	953624	95362.3	90
0	953942	95394.1	183
0	955648	95564.7	54
0	955824	95582.3	57
0	956670	95666.9	104
0	956970	95696.9	7
0	957372	95737.1	22
0	958340	95833.9	18
0	959406	95940.5	151
0	959766	95976.5	138
0	960474	96047.3	182
0	965518	96551.7	31
0	969060	96905.9	30
0	969238	96923.7	35
0	969962	96996.1	32
0	970088	97008.7	56
0	973424	97342.3	25
0	974678	97467.7	144
0	977100	97709.9	130
0	977448	97744.7	21
0	977588	97758.7	10
0	978080	97807.9	129
0	978190	97818.9	52
0	981608	98160.7	87
0	983412	98341.1	57
0	984444	98444.3	47
0	984850	98484.9	45
0	986794	98679.3	325
0	987412	98741.1	230
0	987548	98754.7	50
0	989160	98915.9	91
0	989774	98977.3	40
0	990296	99029.5	14
0	990592	99059.1	2
0	991976	99197.5	1
0	992136	99213.5	45
0	992650	99264.9	4
0	993034	99303.3	255
0	993624	99362.3	26
0	993952	99395.1	60
0	994140	99413.9	47
0	998062	99806.1	186
0	1001620	100161.9	16
0	1003066	100306.5	159
0	1004346	100434.5	30
0	1005852	100585.1	3
0	1006636	100663.5	73
0	1007322	100732.1	67
0	1007848	100784.7	171
0	1011354	101135.3	22
0	1015036	101503.5	22
0	1017162	101716.1	2
0	1017438	101743.7	73
0	1018462	101846.1	75
0	1018684	101868.3	164
0	1021600	102159.9	7
0	1022954	102295.3	15
0	1023890	102388.9	2
0	1024060	102405.9	14
0	1024936	102493.5	41
0	1025766	102576.5	11
0	1026534	102653.3	235
0	1027000	102699.9	19
0	1027050	102704.9	29
0	1031250	103124.9	3
0	1032438	103243.7	27
0	1032930	103292.9	11
0	1033842	103384.1	4
0	1034206	103420.5	29
0	1034418	103441.7	57
0	1035758	103575.7	83
0	1037844	103784.3	70
0	1039302	103930.1	165
0	1041216	104121.5	77
0	1041834	104183.3	18
0	1043888	104388.7	4
0	1046976	104697.5	83
0	1053606	105360.5	6
0	1053870	105386.9	11
0	1055178	105517.7	10
0	1055700	105569.9	213
0	1056726	105672.5	63
0	1058376	105837.5	33
0	1059014	105901.3	58
0	1062868	106286.7	105
0	1063180	106317.9	104
0	1064630	106462.9	8
0	1064774	106477.3	11
0	1064958	106495.7	43
0	1065104	106510.3	66
0	1065874	106587.3	4
0	1067054	106705.3	102
0	1070958	107095.7	67
0	1072056	107205.5	175
0	1073198	107319.7	25
0	1073934	107393.3	15
0	1075534	107553.3	54
0	1077540	107753.9	169
0	1078010	107800.9	16
0	1079620	107961.9	170
0	1081782	108178.1	3
0	1082080	108207.9	182
0	1082434	108243.3	98
0	1083366	108336.5	14
0	1083884	108388.3	13
0	1085146	108514.5	53
0	1087210	108720.9	19
0	1087870	108786.9	14
0	1088078	108807.7	19
0	1088932	108893.1	88
0	1089808	108980.7	85
0	1090350	109034.9	71
0	1096194	109619.3	154
0	1096916	109691.5	28
0	1097390	109738.9	229
0	1097858	109785.7	87
0	1098018	109801.7	47
0	1099296	109929.5	91
0	1100848	110084.7	115
0	1101338	110133.7	2
0	1103580	110357.9	3
0	1104232	110423.1	61
0	1108056	110805.5	3
0	1108608	110860.7	247
0	1110652	111065.1	234
0	1112084	111208.3	2
0	1112112	111211.1	8
0	1112114	111211.3	1
0	1112278	111227.7	5
0	1112624	111262.3	5
0	1113800	111379.9	164
0	1114322	111432.1	49
0	1116152	111615.1	5
0	1118932	111893.1	1
0	1119278	111927.7	163
0	1120664	112066.3	229
0	1123534	112353.3	24
0	1125782	112578.1	10
0	1127458	112745.7	8
0	1128702	112870.1	135
0	1130080	113007.9	44
0	1133916	113391.5	70
0	1133940	113393.9	20
0	1135016	113501.5	41
0	1137066	113706.5	35
0	1137824	113782.3	7
0	1139152	113915.1	147
0	1139826	113982.5	36
0	1140760	114075.9	59
0	1142304	114230.3	4
0	1143652	114365.1	17
0	1144966	114496.5	14
0	1145392	114539.1	57
0	1145878	114587.7	14
0	1148088	114808.7	7
0	1148214	114821.3	22
0	1150412	115041.1	43
0	1152458	115245.7	45
0	1153090	115308.9	28
0	1153196	115319.5	50
0	1153488	115348.7	1
0	1153604	115360.3	11
0	1155296	115529.5	21
0	1158042	115804.1	90
0	1158964	115896.3	57
0	1159238	115923.7	109
0	1160400	116039.9	92
0	1162062	116206.1	37
0	1162414	116241.3	5
0	1163686	116368.5	232
0	1163838	116383.7	20
0	1165096	116509.5	6
0	1165884	116588.3	1
0	1171554	117155.3	134
0	1172052	117205.1	64
0	1172602	117260.1	65
0	1173726	117372.5	93
0	1174342	117434.1	30
0	1176188	117618.7	80
0	1176290	117628.9	28
0	1177352	117735.1	5
0	1179196	117919.5	21
0	1180514	118051.3	23
0	1180766	118076.5	91
0	1181660	118165.9	15
0	1181834	118183.3	89
0	1182568	118256.7	72
0	1183736	118373.5	20
0	1185922	118592.1	36
0	1186774	118677.3	141
0	1187616	118761.5	62
0	1187788	118778.7	42
0	1188522	118852.1	63
0	1188936	118893.5	71
0	1191310	119130.9	23
0	1192966	119296.5	27
0	1196652	119665.1	64
0	1198858	119885.7	224
0	1200462	120046.1	30
0	1201040	120103.9	39
0	1202050	120204.9	45
0	1204306	120430.5	40
0	1204662	120466.1	173
0	1205554	120555.3	8
0	1207518	120751.7	56
0	1207902	120790.1	23
0	1208070	120806.9	62
0	1208212	120821.1	13
0	1210128	121012.7	4
0	1210508	121050.7	11
0	1211618	121161.7	10
0	1212510	121250.9	63
0	1212592	121259.1	44
0	1213008	121300.7	12
0	1214958	121495.7	12
0	1217578	121757.7	256
0	1218730	121872.9	40
0	1218974	121897.3	69
0	1222754	122275.3	1
0	1223660	122365.9	21
0	1223920	122391.9	1
0	1224216	122421.5	3
0	1226262	122626.1	123
0	1228174	122817.3	56
0	1228594	122859.3	47
0	1229354	122935.3	108
0	1232316	123231.5	40
0	1233002	123300.1	85
0	1235008	123500.7	69
0	1235524	123552.3	118
0	1236892	123689.1	77
0	1238358	123835.7	137
0	1239314	123931.3	195
0	1242258	124225.7	127
0	1243432	124343.1	94
0	1243570	124356.9	43
0	1245238	124523.7	50
0	1247174	124717.3	106
0	1250412	125041.1	5
0	1250504	125050.3	39
0	1253498	125349.7	2
0	1253826	125382.5	5
0	1257902	125790.1	83
0	1259442	125944.1	132
0	1261352	126135.1	94
0	1261916	126191.5	69
0	1263230	126322.9	3
0	1267362	126736.1	9
0	1268040	126803.9	57
0	1270044	127004.3	83
0	1270188	127018.7	76
0	1270684	127068.3	46
0	1272152	127215.1	3
0	1274164	127416.3	31
0	1276408	127640.7	11
0	1277618	127761.7	4
0	1278388	127838.7	38
0	1279658	127965.7	91
0	1279888	127988.7	15
0	1279910	127990.9	9
0	1281544	128154.3	14
0	1288864	128886.3	262
0	1291512	129151.1	47
0	1292376	129237.5	4
0	1293498	129349.7	60
0	1295190	129518.9	3
0	1296058	129605.7	217
0	1298828	129882.7	4
0	1299132	129913.1	10
0	1300004	130000.3	40
0	1301960	130195.9	30
0	1302642	130264.1	50
0	1304718	130471.7	62
0	1305176	130517.5	71
0	1305566	130556.5	282
0	1306738	130673.7	266
0	1308004	130800.3	7
0	1312964	131296.3	36
0	1318004	131800.3	29
0	1318740	131873.9	111
0	1321444	132144.3	9
0	1321856	132185.5	91
0	1322266	132226.5	16
0	1325890	132588.9	18
0	1326218	132621.7	101
0	1326736	132673.5	110
0	1327822	132782.1	131
0	1329466	132946.5	12
0	1330210	133020.9	39
0	1330300	133029.9	55
0	1331328	133132.7	86
0	1331598	133159.7	71
0	1333180	133317.9	132
0	1334880	133487.9	51
0	1337396	133739.5	134
0	1339412	133941.1	17
0	1339824	133982.3	6
0	1341488	134148.7	147
0	1342672	134267.1	11
0	1343270	134326.9	7
0	1344728	134472.7	3
0	1345708	134570.7	2
0	1346200	134619.9	171
0	1347438	134743.7	34
0	1347936	134793.5	19
0	1349140	134913.9	21
0	1351622	135162.1	101
0	1352854	135285.3	9
0	1352978	135297.7	1
0	1353308	135330.7	36
0	1356392	135639.1	45
0	1357512	135751.1	54
0	1358978	135897.7	412
0	1359890	135988.9	9
0	1360746	136074.5	92
0	1361310	136130.9	73
0	1361430	136142.9	105
0	1362710	136270.9	99
0	1363270	136326.9	23
0	1363394	136339.3	107
0	1364566	136456.5	116
0	1364870	136486.9	41
0	1365660	136565.9	268
0	1365808	136580.7	2
0	1367604	136760.3	1
0	1367740	136773.9	61
0	1369334	136933.3	21
0	1372920	137291.9	43
0	1373898	137389.7	17
0	1376494	137649.3	23
0	1377492	137749.1	92
0	1380982	138098.1	72
0	1387420	138741.9	1
0	1388596	138859.5	46
0	1389058	138905.7	139
0	1389558	138955.7	4
0	1391246	139124.5	89
0	1392610	139260.9	380
0	1392990	139298.9	2
0	1394174	139417.3	22
0	1394928	139492.7	353
0	1394974	139497.3	2
0	1396338	139633.7	8
0	1397254	139725.3	2
0	1398304	139830.3	35
0	1400080	140007.9	99
0	1402536	140253.5	84
0	1403840	140383.9	14
0	1405232	140523.1	2
0	1405464	140546.3	1
0	1405698	140569.7	16
0	1407436	140743.5	19
0	1409540	140953.9	33
0	1410300	141029.9	11
0	1413148	141314.7	69
0	1413654	141365.3	118
0	1413994	141399.3	69
0	1415870	141586.9	1
0	1416166	141616.5	203
0	1416188	141618.7	7
0	1417544	141754.3	1
0	1419358	141935.7	63
0	1421834	142183.3	45
0	1422242	142224.1	50
0	1424578	142457.7	24
0	1424750	142474.9	2
0	1425666	142566.5	9
0	1426328	142632.7	95
0	1426358	142635.7	21
0	1426866	142686.5	29
0	1428012	142801.1	13
0	1428150	142814.9	31
0	1428316	142831.5	67
0	1428606	142860.5	1
0	1428894	142889.3	102
0	1429640	142963.9	7
0	1432648	143264.7	99
0	1432950	143294.9	66
0	1433154	143315.3	54
0	1433356	143335.5	1
0	1434788	143478.7	250
0	1434956	143495.5	61
0	1436354	143635.3	28
0	1439632	143963.1	5
0	1441258	144125.7	19
0	1442172	144217.1	251
0	1444128	144412.7	26
0	1448812	144881.1	88
0	1449620	144961.9	49
0	1450678	145067.7	42
0	1452478	145247.7	281
0	1454938	145493.7	52
0	1455086	145508.5	68
0	1456494	145649.3	95
0	1459026	145902.5	12
0	1460424	146042.3	54
0	1460754	146075.3	32
0	1461302	146130.1	97
0	1463716	146371.5	5
0	1464206	146420.5	189
0	1465050	146504.9	96
0	1465444	146544.3	18
0	1465810	146580.9	15
0	1469336	146933.5	12
0	1469710	146970.9	348
0	1472844	147284.3	56
0	1473610	147360.9	8
0	1477208	147720.7	9
0	1477966	147796.5	5
0	1477998	147799.7	6
0	1478536	147853.5	37
0	1479028	147902.7	7
0	1479196	147919.5	10
0	1479302	147930.1	3
0	1479972	147997.1	76
0	1480942	148094.1	27
0	1481280	148127.9	58
0	1483354	148335.3	2
0	1484676	148467.5	132
0	1485122	148512.1	31
0	1485874	148587.3	22
0	1488798	148879.7	77
0	1490638	149063.7	55
0	1491624	149162.3	129
0	1491778	149177.7	79
0	1492152	149215.1	25
0	1497540	149753.9	28
0	1498640	149863.9	8
0	1500710	150070.9	23
0	1500736	150073.5	9
0	1500924	150092.3	13
0	1502408	150240.7	3
0	1504840	150483.9	5
0	1505292	150529.1	51
0	1505720	150571.9	20
0	1506552	150655.1	9
0	1511022	151102.1	32
0	1512730	151272.9	13
0	1514562	151456.1	83
0	1515032	151503.1	169
0	1517508	151750.7	75
0	1519304	151930.3	7
0	1523456	152345.5	5
0	1524076	152407.5	89
0	1527516	152751.5	144
0	1528004	152800.3	129
0	1528756	152875.5	75
0	1528890	152888.9	9
0	1530542	153054.1	98
0	1532330	153232.9	39
0	1533778	153377.7	183
0	1534486	153448.5	13
0	1536704	153670.3	27
0	1536842	153684.1	5
0	1537302	153730.1	397
0	1537872	153787.1	1
0	1538214	153821.3	258
0	1540824	154082.3	83
0	1543268	154326.7	308
0	1545952	154595.1	85
0	1546604	154660.3	164
0	1547716	154771.5	39
0	1547990	154798.9	76
0	1548682	154868.1	7
0	1551602	155160.1	7
0	1552838	155283.7	118
0	1553856	155385.5	57
0	1554572	155457.1	27
0	1556016	155601.5	56
0	1556674	155667.3	104
0	1557048	155704.7	7
0	1559158	155915.7	149
0	1559634	155963.3	6
0	1561756	156175.5	234
0	1564686	156468.5	4
0	1566536	156653.5	148
0	1566686	156668.5	78
0	1568966	156896.5	9
0	1573824	157382.3	10
0	1575444	157544.3	11
0	1577620	157761.9	8
0	1579966	157996.5	11
0	1582584	158258.3	35
0	1583776	158377.5	3
0	1586218	158621.7	25
0	1586608	158660.7	27
0	1586848	158684.7	77
0	1587924	158792.3	21
0	1589878	158987.7	41
0	1592376	159237.5	17
0	1596048	159604.7	94
0	1596110	159610.9	2
0	1596606	159660.5	27
0	1597106	159710.5	21
0	1597286	159728.5	4
0	1598002	159800.1	56
0	1599356	159935.5	47
0	1599992	159999.1	324
0	1600474	160047.3	25
0	1601490	160148.9	219
0	1602088	160208.7	17
0	1603242	160324.1	49
0	1603672	160367.1	83
0	1604068	160406.7	101
0	1604886	160488.5	32
0	1609744	160974.3	91
0	1610182	161018.1	125
0	1610958	161095.7	1
0	1611618	161161.7	179
0	1611834	161183.3	18
0	1617424	161742.3	276
0	1619308	161930.7	6
0	1619834	161983.3	6
0	1620288	162028.7	35
0	1620536	162053.5	216
0	1621206	162120.5	19
0	1627666	162766.5	2
0	1627904	162790.3	222
0	1627932	162793.1	13
0	1628068	162806.7	108
0	1631592	163159.1	39
0	1633416	163341.5	23
0	1633742	163374.1	171
0	1633774	163377.3	18
0	1637514	163751.3	23
0	1640908	164090.7	13
0	1643874	164387.3	62
0	1645388	164538.7	94
0	1648482	164848.1	2
0	1648608	164860.7	91
0	1651560	165155.9	78
0	1651806	165180.5	191
0	1653408	165340.7	112
0	1656360	165635.9	80
0	1656594	165659.3	42
0	1660746	166074.5	25
0	1661272	166127.1	71
0	1662704	166270.3	173
0	1663276	166327.5	1
0	1663532	166353.1	61
0	1664062	166406.1	66
0	1666928	166692.7	27
0	1668544	166854.3	5
0	1669160	166915.9	123
0	1671642	167164.1	135
0	1674300	167429.9	113
0	1674924	167492.3	13
0	1675066	167506.5	11
0	1675536	167553.5	130
0	1676768	167676.7	198
0	1677194	167719.3	253
0	1678716	167871.5	152
0	1680404	168040.3	38
0	1683270	168326.9	2
0	1684072	168407.1	55
0	1684912	168491.1	20
0	1685662	168566.1	57
0	1685908	168590.7	104
0	1686288	168628.7	8
0	1689864	168986.3	332
0	1690110	169010.9	11
0	1700660	170065.9	130
0	1701278	170127.7	59
0	1702922	170292.1	126
0	1704366	170436.5	69
0	1707050	170704.9	103
0	1708756	170875.5	115
0	1710778	171077.7	54
0	1711374	171137.3	28
0	1711454	171145.3	28
0	1711716	171171.5	179
0	1712850	171284.9	68
0	1713998	171399.7	219
0	1716828	171682.7	10
0	1717518	171751.7	18
0	1718648	171864.7	5
0	1719010	171900.9	31
0	1719116	171911.5	2
0	1721954	172195.3	55
0	1722910	172290.9	84
0	1725844	172584.3	8
0	1728664	172866.3	82
0	1730120	173011.9	64
0	1731770	173176.9	8
0	1732554	173255.3	69
0	1732798	173279.7	25
0	1733070	173306.9	157
0	1738026	173802.5	92