version 3
run General-106-20230611-05:41:39-416612
attr configname General
attr datetime 20230611-05:41:39
attr datetimef 20230611-054139
attr experiment General
attr inifile omnetpp.ini
attr iterationvars $N=82
attr iterationvarsd N=82
attr iterationvarsf N=82-
attr measurement $N=82
attr network LN
attr processid 416612
attr repetition 2
attr replication #2
attr resultdir results
attr runnumber 106
attr seedset 106
itervar N 82
config network LN
config sim-time-limit 250000s
config **.tic[*].hopCount.result-recording-modes +vector
config *.numCentralNodes 82
config repeat 4

vector 0 LN.lnd[15] hopCount:vector ETV
attr interpolationmode none
attr recordingmode vector
attr source arrival
attr title "hop count"
vector 1 LN.lnd[1] hopCount:vector ETV
attr interpolationmode none
attr recordingmode vector
attr source arrival
attr title "hop count"
vector 2 LN.lnd[4] hopCount:vector ETV
attr interpolationmode none
attr recordingmode vector
attr source arrival
attr title "hop count"
vector 3 LN.lnd[19] hopCount:vector ETV
attr interpolationmode none
attr recordingmode vector
attr source arrival
attr title "hop count"
vector 4 LN.lnd[16] hopCount:vector ETV
attr interpolationmode none
attr recordingmode vector
attr source arrival
attr title "hop count"
vector 5 LN.lnd[14] hopCount:vector ETV
attr interpolationmode none
attr recordingmode vector
attr source arrival
attr title "hop count"
vector 6 LN.lnd[7] hopCount:vector ETV
attr interpolationmode none
attr recordingmode vector
attr source arrival
attr title "hop count"
vector 7 LN.lnd[3] hopCount:vector ETV
attr interpolationmode none
attr recordingmode vector
attr source arrival
attr title "hop count"
vector 8 LN.lnd[18] hopCount:vector ETV
attr interpolationmode none
attr recordingmode vector
attr source arrival
attr title "hop count"
vector 9 LN.lnd[2] hopCount:vector ETV
attr interpolationmode none
attr recordingmode vector
attr source arrival
attr title "hop count"
vector 10 LN.lnd[5] hopCount:vector ETV
attr interpolationmode none
attr recordingmode vector
attr source arrival
attr title "hop count"
vector 11 LN.lnd[10] hopCount:vector ETV
attr interpolationmode none
attr recordingmode vector
attr source arrival
attr title "hop count"
vector 12 LN.lnd[0] hopCount:vector ETV
attr interpolationmode none
attr recordingmode vector
attr source arrival
attr title "hop count"
vector 13 LN.lnd[13] hopCount:vector ETV
attr interpolationmode none
attr recordingmode vector
attr source arrival
attr title "hop count"
vector 14 LN.lnd[17] hopCount:vector ETV
attr interpolationmode none
attr recordingmode vector
attr source arrival
attr title "hop count"
vector 15 LN.lnd[9] hopCount:vector ETV
attr interpolationmode none
attr recordingmode vector
attr source arrival
attr title "hop count"
vector 16 LN.lnd[6] hopCount:vector ETV
attr interpolationmode none
attr recordingmode vector
attr source arrival
attr title "hop count"
vector 17 LN.lnd[8] hopCount:vector ETV
attr interpolationmode none
attr recordingmode vector
attr source arrival
attr title "hop count"
vector 18 LN.lnd[12] hopCount:vector ETV
attr interpolationmode none
attr recordingmode vector
attr source arrival
attr title "hop count"
vector 19 LN.lnd[11] hopCount:vector ETV
attr interpolationmode none
attr recordingmode vector
attr source arrival
attr title "hop count"
0	18	1.7	17
0	846	84.5	129
0	944	94.3	5
0	2766	276.5	71
0	4240	423.9	87
0	4674	467.3	56
0	10122	1012.1	5
0	12916	1291.5	39
0	14622	1462.1	27
0	15144	1514.3	99
0	15576	1557.5	182
0	16148	1614.7	189
0	16278	1627.7	14
0	21054	2105.3	58
0	21514	2151.3	85
0	21750	2174.9	173
0	24154	2415.3	291
0	24834	2483.3	262
0	25030	2502.9	114
0	26328	2632.7	5
0	27770	2776.9	131
0	28184	2818.3	16
0	30688	3068.7	138
0	31544	3154.3	20
0	33796	3379.5	304
0	34082	3408.1	174
0	34930	3492.9	8
0	34986	3498.5	4
0	35260	3525.9	70
0	36868	3686.7	35
0	37386	3738.5	12
0	37958	3795.7	323
0	40468	4046.7	53
0	41638	4163.7	140
0	42828	4282.7	53
0	44446	4444.5	18
0	44672	4467.1	161
0	46400	4639.9	36
0	47952	4795.1	54
0	49540	4953.9	50
0	54036	5403.5	229
0	54706	5470.5	106
0	55078	5507.7	28
0	55444	5544.3	200
0	55954	5595.3	88
0	57272	5727.1	164
0	58202	5820.1	204
0	62160	6215.9	29
0	62372	6237.1	166
0	65920	6591.9	292
0	66006	6600.5	3
0	67006	6700.5	4
0	70024	7002.3	147
0	70464	7046.3	25
0	70936	7093.5	44
0	71344	7134.3	43
0	73658	7365.7	141
0	80850	8084.9	112
0	83952	8395.1	187
0	84124	8412.3	48
0	84408	8440.7	62
0	85960	8595.9	85
0	86954	8695.3	53
0	88004	8800.3	58
0	89074	8907.3	331
0	89720	8971.9	52
0	91446	9144.5	5
0	91820	9181.9	50
0	93664	9366.3	16
0	95932	9593.1	318
0	97296	9729.5	5
0	98978	9897.7	145
0	102680	10267.9	197
0	102708	10270.7	17
0	103560	10355.9	16
0	104144	10414.3	176
0	108432	10843.1	337
0	109040	10903.9	424
0	110214	11021.3	60
0	111272	11127.1	42
0	111888	11188.7	239
0	118062	11806.1	361
0	121748	12174.7	338
0	122500	12249.9	40
0	122724	12272.3	29
0	123402	12340.1	36
0	123896	12389.5	216
0	129436	12943.5	588
0	130456	13045.5	57
0	131058	13105.7	97
0	131588	13158.7	92
0	132932	13293.1	160
0	135162	13516.1	103
0	139872	13987.1	62
0	140026	14002.5	94
0	140746	14074.5	57
0	141020	14101.9	117
0	141542	14154.1	248
0	142484	14248.3	202
0	146676	14667.5	41
0	147300	14729.9	13
0	150918	15091.7	702
0	151586	15158.5	136
0	154176	15417.5	292
0	155340	15533.9	8
0	156088	15608.7	158
0	158236	15823.5	30
0	158300	15829.9	28
0	158674	15867.3	25
0	160512	16051.1	266
0	161394	16139.3	22
0	162574	16257.3	195
0	162948	16294.7	56
0	164452	16445.1	296
0	165266	16526.5	22
0	166738	16673.7	171
0	170082	17008.1	408
0	170240	17023.9	1
0	171438	17143.7	418
0	173156	17315.5	91
0	173870	17386.9	1
0	174026	17402.5	68
0	174490	17448.9	15
0	175122	17512.1	463
0	175334	17533.3	24
0	178692	17869.1	23
0	179846	17984.5	3
0	180826	18082.5	6
0	182370	18236.9	364
0	182552	18255.1	102
0	184518	18451.7	25
0	184986	18498.5	17
0	185848	18584.7	15
0	187408	18740.7	136
0	189856	18985.5	36
0	191240	19123.9	7
0	191926	19192.5	56
0	193162	19316.1	15
0	196506	19650.5	525
0	197174	19717.3	103
0	202950	20294.9	1
0	205186	20518.5	75
0	206398	20639.7	5
0	207182	20718.1	149
0	207742	20774.1	257
0	208488	20848.7	3
0	208948	20894.7	88
0	211086	21108.5	15
0	211914	21191.3	137
0	212956	21295.5	365
0	213314	21331.3	12
0	214854	21485.3	24
0	217850	21784.9	12
0	221758	22175.7	65
0	222526	22252.5	232
0	222888	22288.7	32
0	223488	22348.7	41
0	224392	22439.1	277
0	224874	22487.3	7
0	225104	22510.3	50
0	225334	22533.3	184
0	226762	22676.1	51
0	227300	22729.9	2
0	229430	22942.9	81
0	229690	22968.9	126
0	230164	23016.3	107
0	231668	23166.7	1
0	232442	23244.1	28
0	232646	23264.5	151
0	232990	23298.9	98
0	233390	23338.9	266
0	233528	23352.7	17
0	235666	23566.5	104
0	236094	23609.3	21
0	240178	24017.7	22
0	240950	24094.9	270
0	241296	24129.5	9
0	243218	24321.7	225
0	244174	24417.3	155
0	245240	24523.9	132
0	245790	24578.9	39
0	247602	24760.1	178
0	248216	24821.5	124
0	248602	24860.1	204
0	249730	24972.9	78
0	250600	25059.9	234
0	250712	25071.1	45
0	251444	25144.3	241
0	252834	25283.3	138
0	253486	25348.5	48
0	255296	25529.5	120
0	256150	25614.9	378
0	256774	25677.3	32
0	257382	25738.1	57
0	259128	25912.7	113
0	260006	26000.5	198
0	261466	26146.5	153
0	263200	26319.9	2
0	265030	26502.9	70
0	265726	26572.5	106
0	268876	26887.5	345
0	269048	26904.7	28
0	270574	27057.3	216
0	271196	27119.5	159
0	272110	27210.9	1
0	272844	27284.3	267
0	273346	27334.5	99
0	274998	27499.7	46
0	275774	27577.3	60
0	276498	27649.7	93
0	278682	27868.1	203
0	279054	27905.3	161
0	279932	27993.1	46
0	280870	28086.9	70
0	281806	28180.5	376
0	282344	28234.3	67
0	283136	28313.5	228
0	283674	28367.3	9
0	284228	28422.7	385
0	286952	28695.1	148
0	287732	28773.1	105
0	288658	28865.7	79
0	290562	29056.1	182
0	290818	29081.7	113
0	291558	29155.7	212
0	292190	29218.9	14
0	293584	29358.3	213
0	294250	29424.9	132
0	295226	29522.5	153
0	295428	29542.7	44
0	297724	29772.3	21
0	302964	30296.3	235
0	303348	30334.7	18
0	303782	30378.1	76
0	304016	30401.5	79
0	304888	30488.7	397
0	307142	30714.1	38
0	307516	30751.5	89
0	308744	30874.3	281
0	308922	30892.1	138
0	310538	31053.7	172
0	313340	31333.9	55
0	315130	31512.9	64
0	317156	31715.5	104
0	318060	31805.9	209
0	319748	31974.7	23
0	320870	32086.9	248
0	322148	32214.7	22
0	323002	32300.1	92
0	325698	32569.7	273
0	329452	32945.1	114
0	329906	32990.5	80
0	329956	32995.5	39
0	331080	33107.9	104
0	332218	33221.7	119
0	332812	33281.1	1
0	332950	33294.9	18
0	333808	33380.7	80
0	335334	33533.3	38
0	335534	33553.3	76
0	336086	33608.5	1
0	336652	33665.1	16
0	337558	33755.7	398
0	338112	33811.1	351
0	338726	33872.5	5
0	338868	33886.7	65
0	341588	34158.7	3
0	343686	34368.5	111
0	344814	34481.3	31
0	345814	34581.3	726
0	346782	34678.1	82
0	347950	34794.9	40
0	354224	35422.3	418
0	354390	35438.9	1
0	355638	35563.7	4
0	357242	35724.1	1
0	358026	35802.5	42
0	358184	35818.3	104
0	363556	36355.5	104
0	364002	36400.1	6
0	364340	36433.9	105
0	366460	36645.9	26
0	367516	36751.5	52
0	370864	37086.3	9
0	371806	37180.5	5
0	373704	37370.3	28
0	375658	37565.7	419
0	375672	37567.1	8
0	376094	37609.3	312
0	379458	37945.7	64
0	379852	37985.1	190
0	380266	38026.5	8
0	382792	38279.1	74
0	383988	38398.7	169
0	384080	38407.9	43
0	387074	38707.3	9
0	387382	38738.1	24
0	391066	39106.5	324
0	392318	39231.7	55
0	394300	39429.9	590
0	394626	39462.5	23
0	396246	39624.5	33
0	398702	39870.1	170
0	400272	40027.1	226
0	401154	40115.3	143
0	401626	40162.5	28
0	402736	40273.5	48
0	404822	40482.1	131
0	405798	40579.7	40
0	407458	40745.7	206
0	407618	40761.7	53
0	409038	40903.7	44
0	410064	41006.3	5
0	410320	41031.9	130
0	410892	41089.1	30
0	412996	41299.5	3
0	413946	41394.5	184
0	414620	41461.9	306
0	417796	41779.5	102
0	417822	41782.1	16
0	418300	41829.9	13
0	419318	41931.7	197
0	419570	41956.9	66
0	421098	42109.7	133
0	422634	42263.3	273
0	423214	42321.3	121
0	425252	42525.1	741
0	426134	42613.3	64
0	426434	42643.3	49
0	426844	42684.3	392
0	428622	42862.1	156
0	429398	42939.7	165
0	430674	43067.3	90
0	433410	43340.9	181
0	433702	43370.1	138
0	435082	43508.1	3
0	435820	43581.9	114
0	436882	43688.1	93
0	438564	43856.3	122
0	438960	43895.9	301
0	443932	44393.1	1
0	444398	44439.7	134
0	445242	44524.1	69
0	446504	44650.3	107
0	446722	44672.1	137
0	446874	44687.3	44
0	447518	44751.7	174
0	448400	44839.9	40
0	451582	45158.1	666
0	451814	45181.3	1
0	451942	45194.1	56
0	452144	45214.3	124
0	458984	45898.3	31
0	459402	45940.1	311
0	461252	46125.1	127
0	462100	46209.9	66
0	462430	46242.9	34
0	463000	46299.9	25
0	464230	46422.9	224
0	465658	46565.7	42
0	466054	46605.3	164
0	467060	46705.9	48
0	467204	46720.3	60
0	471904	47190.3	125
0	473136	47313.5	150
0	473926	47392.5	20
0	474130	47412.9	102
0	479366	47936.5	206
0	480718	48071.7	286
0	481406	48140.5	62
0	482366	48236.5	7
0	484538	48453.7	45
0	485830	48582.9	84
0	486572	48657.1	284
0	488542	48854.1	876
0	488932	48893.1	94
0	489068	48906.7	103
0	489740	48973.9	251
0	490354	49035.3	1
0	495034	49503.3	81
0	498212	49821.1	184
0	498616	49861.5	12
0	498628	49862.7	6
0	498916	49891.5	62
0	499284	49928.3	1
0	505342	50534.1	161
0	506452	50645.1	8
0	506792	50679.1	67
0	507132	50713.1	205
0	507386	50738.5	29
0	508952	50895.1	90
0	509742	50974.1	57
0	511972	51197.1	156
0	513374	51337.3	15
0	514820	51481.9	26
0	516978	51697.7	93
0	520594	52059.3	11
0	521086	52108.5	7
0	521232	52123.1	36
0	521572	52157.1	86
0	522342	52234.1	7
0	522948	52294.7	233
0	523264	52326.3	270
0	523386	52338.5	13
0	523708	52370.7	136
0	524192	52419.1	408
0	524904	52490.3	306
0	525776	52577.5	7
0	525858	52585.7	32
0	527082	52708.1	78
0	529198	52919.7	62
0	529868	52986.7	243
0	530662	53066.1	228
0	531128	53112.7	33
0	531618	53161.7	447
0	531858	53185.7	94
0	533154	53315.3	3
0	534988	53498.7	52
0	535352	53535.1	236
0	536708	53670.7	75
0	537176	53717.5	50
0	538966	53896.5	79
0	539854	53985.3	22
0	541818	54181.7	172
0	546266	54626.5	104
0	547072	54707.1	98
0	547890	54788.9	303
0	548224	54822.3	38
0	551330	55132.9	824
0	555802	55580.1	65
0	556316	55631.5	109
0	558150	55814.9	329
0	558574	55857.3	127
0	559078	55907.7	50
0	559324	55932.3	59
0	560038	56003.7	135
0	562830	56282.9	70
0	563192	56319.1	179
0	563274	56327.3	58
0	564572	56457.1	58
0	564922	56492.1	236
0	565686	56568.5	215
0	566732	56673.1	42
0	566912	56691.1	119
0	570080	57007.9	86
0	572074	57207.3	228
0	573142	57314.1	61
0	573720	57371.9	136
0	574362	57436.1	35
0	575382	57538.1	46
0	581288	58128.7	56
0	581778	58177.7	49
0	582450	58244.9	286
0	582592	58259.1	15
0	582756	58275.5	56
0	583284	58328.3	43
0	584544	58454.3	59
0	587098	58709.7	36
0	587434	58743.3	24
0	588680	58867.9	162
0	589606	58960.5	174
0	589960	58995.9	36
0	592552	59255.1	277
0	595716	59571.5	339
0	597278	59727.7	201
0	598280	59827.9	24
0	598516	59851.5	25
0	599522	59952.1	76
0	601060	60105.9	32
0	602858	60285.7	113
0	606558	60655.7	8
0	607860	60785.9	14
0	608662	60866.1	42
0	612372	61237.1	162
0	612400	61239.9	21
0	612590	61258.9	186
0	613004	61300.3	106
0	614642	61464.1	52
0	617316	61731.5	180
0	618480	61847.9	101
0	619094	61909.3	80
0	619416	61941.5	10
0	620828	62082.7	118
0	621116	62111.5	183
0	621720	62171.9	382
0	622380	62237.9	1
0	622944	62294.3	89
0	623936	62393.5	135
0	624366	62436.5	81
0	624674	62467.3	169
0	625024	62502.3	1
0	625730	62572.9	331
0	626218	62621.7	13
0	627062	62706.1	1
0	627322	62732.1	214
0	627450	62744.9	83
0	631486	63148.5	18
0	632012	63201.1	205
0	632958	63295.7	65
0	633236	63323.5	255
0	633342	63334.1	101
0	634210	63420.9	212
0	635774	63577.3	10
0	636458	63645.7	4
0	637044	63704.3	33
0	637420	63741.9	4
0	639370	63936.9	55
0	642412	64241.1	131
0	644730	64472.9	1
0	647426	64742.5	134
0	647886	64788.5	87
0	651120	65111.9	367
0	651468	65146.7	41
0	658856	65885.5	86
0	660408	66040.7	59
0	662522	66252.1	106
0	662980	66297.9	17
0	663426	66342.5	393
0	664168	66416.7	155
0	665354	66535.3	104
0	665556	66555.5	56
0	666746	66674.5	61
0	668202	66820.1	29
0	668536	66853.5	48
0	669688	66968.7	67
0	670348	67034.7	37
0	670618	67061.7	48
0	671088	67108.7	8
0	671472	67147.1	194
0	674410	67440.9	3
0	675698	67569.7	7
0	676406	67640.5	206
0	676608	67660.7	127
0	677066	67706.5	55
0	679516	67951.5	84
0	680692	68069.1	276
0	680812	68081.1	116
0	683208	68320.7	11
0	685288	68528.7	1
0	687006	68700.5	81
0	687318	68731.7	88
0	687458	68745.7	20
0	688202	68820.1	243
0	690372	69037.1	186
0	694012	69401.1	441
0	695146	69514.5	405
0	696018	69601.7	90
0	697156	69715.5	90
0	697362	69736.1	73
0	701496	70149.5	154
0	703436	70343.5	37
0	704228	70422.7	455
0	705252	70525.1	252
0	707832	70783.1	38
0	708126	70812.5	205
0	711666	71166.5	29
0	712552	71255.1	11
0	715822	71582.1	36
0	715884	71588.3	19
0	716222	71622.1	65
0	716320	71631.9	79
0	716936	71693.5	61
0	719806	71980.5	87
0	720532	72053.1	593
0	722466	72246.5	178
0	723566	72356.5	288
0	723800	72379.9	13
0	724316	72431.5	30
0	725318	72531.7	36
0	727058	72705.7	384
0	728658	72865.7	219
0	729388	72938.7	291
0	734346	73434.5	102
0	734648	73464.7	177
0	739962	73996.1	49
0	742218	74221.7	125
0	744196	74419.5	76
0	746370	74636.9	64
0	747454	74745.3	346
0	747986	74798.5	19
0	748346	74834.5	51
0	748818	74881.7	39
0	751246	75124.5	396
0	751356	75135.5	28
0	751764	75176.3	11
0	752378	75237.7	520
0	752582	75258.1	6
0	752712	75271.1	128
0	753100	75309.9	16
0	754612	75461.1	7
0	755560	75555.9	97
0	763064	76306.3	330
0	764518	76451.7	23
0	765426	76542.5	201
0	765736	76573.5	269
0	766340	76633.9	23
0	767606	76760.5	62
0	770526	77052.5	99
0	771766	77176.5	219
0	772590	77258.9	218
0	773680	77367.9	52
0	774074	77407.3	143
0	774984	77498.3	15
0	778036	77803.5	53
0	779078	77907.7	561
0	780588	78058.7	134
0	781120	78111.9	106
0	783126	78312.5	103
0	783672	78367.1	129
0	784794	78479.3	5
0	785480	78547.9	655
0	787810	78780.9	9
0	788010	78800.9	1
0	789498	78949.7	264
0	789816	78981.5	42
0	791014	79101.3	152
0	795004	79500.3	387
0	796344	79634.3	40
0	797202	79720.1	4
0	797600	79759.9	214
0	797750	79774.9	140
0	797980	79797.9	149
0	798504	79850.3	35
0	800072	80007.1	12
0	800998	80099.7	114
0	804588	80458.7	84
0	805126	80512.5	181
0	805382	80538.1	211
0	807746	80774.5	68
0	807994	80799.3	93
0	809468	80946.7	69
0	811056	81105.5	42
0	811204	81120.3	49
0	811296	81129.5	48
0	812780	81277.9	31
0	813006	81300.5	196
0	815026	81502.5	198
0	816092	81609.1	683
0	816254	81625.3	156
0	820522	82052.1	383
0	821950	82194.9	99
0	824266	82426.5	96
0	826246	82624.5	81
0	828690	82868.9	104
0	831032	83103.1	205
0	834064	83406.3	123
0	834938	83493.7	32
0	836666	83666.5	336
0	837862	83786.1	228
0	837874	83787.3	3
0	838460	83845.9	135
0	840514	84051.3	29
0	841552	84155.1	190
0	843086	84308.5	43
0	843808	84380.7	271
0	847294	84729.3	9
0	849364	84936.3	156
0	853138	85313.7	404
0	854248	85424.7	412
0	855356	85535.5	68
0	856176	85617.5	46
0	857538	85753.7	83
0	859000	85899.9	58
0	859214	85921.3	72
0	860308	86030.7	15
0	861972	86197.1	82
0	862914	86291.3	1
0	863414	86341.3	9
0	868026	86802.5	40
0	868626	86862.5	11
0	870804	87080.3	73
0	871776	87177.5	138
0	872376	87237.5	167
0	872606	87260.5	6
0	874960	87495.9	3
0	876748	87674.7	386
0	876906	87690.5	31
0	877918	87791.7	259
0	880210	88020.9	338
0	880386	88038.5	26
0	884214	88421.3	39
0	885204	88520.3	1
0	886236	88623.5	217
0	887498	88749.7	14
0	887960	88795.9	13
0	889080	88907.9	16
0	889724	88972.3	257
0	891876	89187.5	17
0	892030	89202.9	147
0	893516	89351.5	62
0	893610	89360.9	5
0	893624	89362.3	9
0	895320	89531.9	85
0	897388	89738.7	80
0	899604	89960.3	103
0	899632	89963.1	23
0	899754	89975.3	93
0	900556	90055.5	123
0	901174	90117.3	84
0	901898	90189.7	4
0	903602	90360.1	115
0	903672	90367.1	69
0	904828	90482.7	33
0	904834	90483.3	2
0	906978	90697.7	64
0	907010	90700.9	9
0	907310	90730.9	14
0	908174	90817.3	325
0	908916	90891.5	105
0	911548	91154.7	100
0	912990	91298.9	141
0	913328	91332.7	67
0	916098	91609.7	289
0	916182	91618.1	9
0	916966	91696.5	5
0	919208	91920.7	45
0	921310	92130.9	9
0	921434	92143.3	112
0	921622	92162.1	177
0	923170	92316.9	134
0	925108	92510.7	188
0	925218	92521.7	67
0	927172	92717.1	29
0	930584	93058.3	116
0	932326	93232.5	105
0	932790	93278.9	390
0	933572	93357.1	233
0	934472	93447.1	169
0	934772	93477.1	119
0	935212	93521.1	30
0	935786	93578.5	120
0	937198	93719.7	217
0	937634	93763.3	140
0	938710	93870.9	194
0	938896	93889.5	84
0	941026	94102.5	9
0	941308	94130.7	200
0	942210	94220.9	137
0	942398	94239.7	16
0	942516	94251.5	9
0	942738	94273.7	113
0	943228	94322.7	98
0	945902	94590.1	2
0	948056	94805.5	61
0	948950	94894.9	88
0	949000	94899.9	14
0	952300	95229.9	103
0	954440	95443.9	45
0	954516	95451.5	33
0	955354	95535.3	45
0	955458	95545.7	64
0	957062	95706.1	7
0	957284	95728.3	160
0	957674	95767.3	48
0	958720	95871.9	164
0	959704	95970.3	81
0	961558	96155.7	36
0	962524	96252.3	84
0	964218	96421.7	54
0	964824	96482.3	290
0	965802	96580.1	347
0	967502	96750.1	136
0	968256	96825.5	112
0	968916	96891.5	353
0	969828	96982.7	1
0	970146	97014.5	100
0	971292	97129.1	191
0	972388	97238.7	7
0	972846	97284.5	5
0	974862	97486.1	74
0	976364	97636.3	11
0	977054	97705.3	9
0	980088	98008.7	89
0	980756	98075.5	194
0	981514	98151.3	433
0	982014	98201.3	200
0	983632	98363.1	1
0	985176	98517.5	278
0	985524	98552.3	88
0	986776	98677.5	11
0	987068	98706.7	7
0	987360	98735.9	20
0	989684	98968.3	110
0	991868	99186.7	78
0	992918	99291.7	125
0	993530	99352.9	201
0	993958	99395.7	277
0	994628	99462.7	66
0	994968	99496.7	313
0	996648	99664.7	72
0	1001470	100146.9	496
0	1003072	100307.1	138
0	1004416	100441.5	17
0	1005006	100500.5	294
0	1007240	100723.9	582
0	1008342	100834.1	52
0	1008618	100861.7	16
0	1008996	100899.5	107
0	1010024	101002.3	8
0	1010794	101079.3	217
0	1011246	101124.5	208
0	1012620	101261.9	62
0	1013050	101304.9	377
0	1015344	101534.3	227
0	1019016	101901.5	32
0	1020446	102044.5	63
0	1020866	102086.5	208
0	1021276	102127.5	6
0	1021380	102137.9	1
0	1021996	102199.5	75
0	1022934	102293.3	161
0	1023230	102322.9	17
0	1024044	102404.3	169
0	1025236	102523.5	11
0	1025522	102552.1	10
0	1026144	102614.3	28
0	1026276	102627.5	104
0	1026854	102685.3	37
0	1028176	102817.5	83
0	1030730	103072.9	18
0	1032042	103204.1	6
0	1034092	103409.1	235
0	1036266	103626.5	212
0	1036690	103668.9	1
0	1038876	103887.5	41
0	1041066	104106.5	265
0	1042138	104213.7	32
0	1042408	104240.7	42
0	1045506	104550.5	5
0	1047342	104734.1	320
0	1051056	105105.5	394
0	1051640	105163.9	2
0	1054222	105422.1	22
0	1054634	105463.3	53
0	1056108	105610.7	185
0	1058530	105852.9	22
0	1060420	106041.9	1
0	1062630	106262.9	124
0	1062922	106292.1	84
0	1063706	106370.5	144
0	1064842	106484.1	33
0	1065522	106552.1	198
0	1067116	106711.5	200
0	1068588	106858.7	127
0	1068924	106892.3	121
0	1070184	107018.3	119
0	1072234	107223.3	378
0	1073480	107347.9	298
0	1074886	107488.5	231
0	1075616	107561.5	32
0	1076818	107681.7	508
0	1077032	107703.1	48
0	1077666	107766.5	113
0	1079688	107968.7	58
0	1080314	108031.3	31
0	1080608	108060.7	293
0	1081156	108115.5	3
0	1086088	108608.7	204
0	1086706	108670.5	515
0	1087952	108795.1	83
0	1094150	109414.9	168
0	1094300	109429.9	37
0	1097438	109743.7	77
0	1098170	109816.9	20
0	1100302	110030.1	250
0	1100850	110084.9	28
0	1105768	110576.7	138
0	1106976	110697.5	111
0	1107912	110791.1	183
0	1108086	110808.5	1
0	1111460	111145.9	67
0	1113610	111360.9	6
0	1114304	111430.3	103
0	1114926	111492.5	86
0	1116456	111645.5	262
0	1116622	111662.1	9
0	1118040	111803.9	21
0	1120012	112001.1	608
0	1120486	112048.5	149
0	1123448	112344.7	119
0	1124430	112442.9	163
0	1125286	112528.5	109
0	1125898	112589.7	60
0	1126118	112611.7	10
0	1127450	112744.9	104
0	1127798	112779.7	96
0	1131706	113170.5	5
0	1134068	113406.7	64
0	1136494	113649.3	225
0	1139664	113966.3	83
0	1140610	114060.9	210
0	1145818	114581.7	31
0	1147560	114755.9	45
0	1149150	114914.9	179
0	1153504	115350.3	127
0	1154168	115416.7	112
0	1156056	115605.5	200
0	1156656	115665.5	238
0	1158738	115873.7	360
0	1159802	115980.1	61
0	1160710	116070.9	30
0	1161044	116104.3	39
0	1162978	116297.7	109
0	1163924	116392.3	400
0	1164182	116418.1	56
0	1166166	116616.5	218
0	1166462	116646.1	70
0	1168096	116809.5	9
0	1169182	116918.1	18
0	1170472	117047.1	58
0	1172112	117211.1	190
0	1172388	117238.7	38
0	1172482	117248.1	70
0	1172904	117290.3	52
0	1174110	117410.9	71
0	1174428	117442.7	142
0	1175272	117527.1	2
0	1176796	117679.5	144
0	1177572	117757.1	98
0	1178908	117890.7	18
0	1180606	118060.5	259
0	1181140	118113.9	334
0	1185222	118522.1	898
0	1187316	118731.5	1
0	1188252	118825.1	39
0	1189050	118904.9	116
0	1189552	118955.1	124
0	1190552	119055.1	22
0	1190718	119071.7	88
0	1191308	119130.7	48
0	1191578	119157.7	12
0	1192902	119290.1	433
0	1193148	119314.7	167
0	1193598	119359.7	21
0	1197864	119786.3	92
0	1199178	119917.7	223
0	1200410	120040.9	378
0	1200854	120085.3	70
0	1201492	120149.1	130
0	1202754	120275.3	84
0	1203252	120325.1	172
0	1205144	120514.3	68
0	1206112	120611.1	301
0	1206344	120634.3	133
0	1207578	120757.7	105
0	1209720	120971.9	223
0	1217776	121777.5	238
0	1220756	122075.5	149
0	1221344	122134.3	8
0	1222512	122251.1	176
0	1222864	122286.3	128
0	1223832	122383.1	2
0	1224342	122434.1	72
0	1224564	122456.3	20
0	1226998	122699.7	281
0	1227348	122734.7	141
0	1227606	122760.5	174
0	1228914	122891.3	86
0	1232114	123211.3	41
0	1233452	123345.1	22
0	1233888	123388.7	138
0	1234880	123487.9	157
0	1236386	123638.5	10
0	1236674	123667.3	71
0	1236766	123676.5	62
0	1237142	123714.1	168
0	1237486	123748.5	185
0	1237734	123773.3	61
0	1240430	124042.9	355
0	1240748	124074.7	13
0	1243264	124326.3	254
0	1244930	124492.9	55
0	1246176	124617.5	7
0	1246472	124647.1	25
0	1246612	124661.1	22
0	1246886	124688.5	193
0	1248158	124815.7	169
0	1248408	124840.7	37
0	1250546	125054.5	108
0	1251964	125196.3	391
0	1253828	125382.7	83
0	1254534	125453.3	293
0	1254768	125476.7	175
0	1254996	125499.5	23
0	1255138	125513.7	141
0	1256910	125690.9	57
0	1258680	125867.9	98
0	1260580	126057.9	280
0	1263360	126335.9	180
0	1263500	126349.9	104
0	1267808	126780.7	252
0	1267936	126793.5	36
0	1268576	126857.5	274
0	1271052	127105.1	3
0	1271394	127139.3	48
0	1272620	127261.9	159
0	1273566	127356.5	65
0	1273584	127358.3	7
0	1273814	127381.3	1
0	1274862	127486.1	395
0	1275122	127512.1	143
0	1278552	127855.1	121
0	1280954	128095.3	74
0	1282652	128265.1	423
0	1285028	128502.7	20
0	1288114	128811.3	206
0	1288350	128834.9	121
0	1293288	129328.7	184
0	1293604	129360.3	106
0	1294030	129402.9	44
0	1294420	129441.9	21
0	1296064	129606.3	6
0	1299292	129929.1	177
0	1300126	130012.5	107
0	1300376	130037.5	7
0	1303374	130337.3	682
0	1303876	130387.5	230
0	1304170	130416.9	196
0	1304746	130474.5	160
0	1307484	130748.3	26
0	1308050	130804.9	26
0	1308430	130842.9	1
0	1308906	130890.5	91
0	1309124	130912.3	5
0	1309196	130919.5	32
0	1309892	130989.1	21
0	1311088	131108.7	13
0	1312022	131202.1	20
0	1314588	131458.7	179
0	1315076	131507.5	5
0	1315234	131523.3	34
0	1321964	132196.3	268
0	1324476	132447.5	5
0	1325882	132588.1	490
0	1326180	132617.9	82
0	1326982	132698.1	78
0	1329756	132975.5	255
0	1332160	133215.9	301
0	1333260	133325.9	368
0	1333884	133388.3	180
0	1336856	133685.5	47
0	1337244	133724.3	107
0	1337918	133791.7	21
0	1342648	134264.7	20
0	1344954	134495.3	28
0	1345510	134550.9	59
0	1345912	134591.1	89
0	1346476	134647.5	194
0	1347866	134786.5	1
0	1348178	134817.7	48
0	1348932	134893.1	4
0	1351806	135180.5	19
0	1352932	135293.1	84
0	1353136	135313.5	36
0	1354120	135411.9	36
0	1357112	135711.1	46
0	1358024	135802.3	91
0	1359520	135951.9	28
0	1359820	135981.9	88
0	1360502	136050.1	58
0	1361230	136122.9	211
0	1362488	136248.7	165
0	1363246	136324.5	34
0	1366324	136632.3	69
0	1369828	136982.7	121
0	1370460	137045.9	27
0	1371664	137166.3	271
0	1372588	137258.7	262
0	1373088	137308.7	110
0	1373636	137363.5	52
0	1373860	137385.9	32
0	1374686	137468.5	25
0	1376726	137672.5	333
0	1377148	137714.7	45
0	1378972	137897.1	88
0	1379788	137978.7	669
0	1381046	138104.5	74
0	1382158	138215.7	88
0	1384724	138472.3	15
0	1385604	138560.3	108
0	1386884	138688.3	35
0	1387404	138740.3	21
0	1387576	138757.5	9
0	1389042	138904.1	358
0	1393178	139317.7	1
0	1393982	139398.1	278
0	1394320	139431.9	24
0	1395834	139583.3	365
0	1401024	140102.3	144
0	1402066	140206.5	202
0	1403814	140381.3	141
0	1405762	140576.1	8
0	1407024	140702.3	53
0	1407822	140782.1	7
0	1409898	140989.7	278
0	1410714	141071.3	20
0	1410856	141085.5	89
0	1411632	141163.1	139
0	1412778	141277.7	259
0	1413662	141366.1	59
0	1414526	141452.5	118
0	1416232	141623.1	47
0	1416548	141654.7	120
0	1419936	141993.5	258
0	1421052	142105.1	106
0	1427244	142724.3	41
0	1427932	142793.1	28
0	1428002	142800.1	1
0	1428046	142804.5	34
0	1428894	142889.3	132
0	1429796	142979.5	51
0	1430798	143079.7	97
0	1435218	143521.7	100
0	1438196	143819.5	27
0	1444812	144481.1	3
0	1446288	144628.7	10
0	1449412	144941.1	169
0	1449868	144986.7	175
0	1452782	145278.1	39
0	1452994	145299.3	200
0	1454460	145445.9	339
0	1455956	145595.5	9
0	1456870	145686.9	47
0	1457318	145731.7	11
0	1457616	145761.5	32
0	1463164	146316.3	11
0	1464466	146446.5	308
0	1465088	146508.7	13
0	1465838	146583.7	170
0	1466170	146616.9	204
0	1466824	146682.3	40
0	1470456	147045.5	87
0	1471656	147165.5	48
0	1471742	147174.1	72
0	1476470	147646.9	183
0	1477176	147717.5	260
0	1478054	147805.3	54
0	1479676	147967.5	53
0	1481958	148195.7	374
0	1484964	148496.3	57
0	1485592	148559.1	24
0	1486872	148687.1	283
0	1487662	148766.1	2
0	1488296	148829.5	420
0	1491594	149159.3	6
0	1494018	149401.7	141
0	1496884	149688.3	207
0	1498722	149872.1	21
0	1499564	149956.3	201
0	1503462	150346.1	5
0	1507296	150729.5	103
0	1508104	150810.3	217
0	1508726	150872.5	143
0	1508970	150896.9	110
0	1510386	151038.5	194
0	1511162	151116.1	591
0	1512272	151227.1	24
0	1513970	151396.9	220
0	1516864	151686.3	50
0	1517388	151738.7	74
0	1518864	151886.3	258
0	1520484	152048.3	77
0	1522800	152279.9	58
0	1524374	152437.3	83
0	1525710	152570.9	351
0	1531634	153163.3	145
0	1534542	153454.1	62
0	1535368	153536.7	93
0	1538506	153850.5	25
0	1539838	153983.7	113
0	1540068	154006.7	6
0	1540936	154093.5	110
0	1541302	154130.1	62
0	1542498	154249.7	60
0	1543476	154347.5	222
0	1544674	154467.3	56
0	1546160	154615.9	6
0	1546574	154657.3	99
0	1547388	154738.7	2
0	1548224	154822.3	259
0	1548456	154845.5	48
0	1550204	155020.3	150
0	1550634	155063.3	174
0	1551442	155144.1	92
0	1553518	155351.7	36
0	1553702	155370.1	24
0	1555908	155590.7	385
0	1558352	155835.1	25
0	1561810	156180.9	4
0	1562018	156201.7	63
0	1562778	156277.7	205
0	1563134	156313.3	6
0	1563190	156318.9	10
0	1565006	156500.5	104
0	1565202	156520.1	7
0	1565464	156546.3	6
0	1565826	156582.5	299
0	1566130	156612.9	9
0	1567346	156734.5	109
0	1568204	156820.3	97
0	1569558	156955.7	9
0	1570576	157057.5	186
0	1571458	157145.7	10
0	1571936	157193.5	80
0	1572260	157225.9	123
0	1573462	157346.1	74
0	1574904	157490.3	16
0	1575226	157522.5	36
0	1576358	157635.7	150
0	1577862	157786.1	22
0	1580822	158082.1	143
0	1581098	158109.7	224
0	1581262	158126.1	12
0	1582448	158244.7	189
0	1586684	158668.3	213
0	1587576	158757.5	52
0	1588432	158843.1	1
0	1588886	158888.5	44
0	1592378	159237.7	85
0	1594952	159495.1	59
0	1596036	159603.5	10
0	1596386	159638.5	185
0	1596466	159646.5	32
0	1597440	159743.9	11
0	1598570	159856.9	3
0	1598740	159873.9	125
0	1598960	159895.9	24
0	1599516	159951.5	3
0	1599722	159972.1	9
0	1599922	159992.1	64
0	1600592	160059.1	169
0	1603178	160317.7	35
0	1604074	160407.3	214
0	1605154	160515.3	57
0	1605244	160524.3	11
0	1607802	160780.1	13
0	1608564	160856.3	2
0	1608692	160869.1	13
0	1608940	160893.9	236
0	1609226	160922.5	64
0	1610944	161094.3	48
0	1611934	161193.3	5
0	1614038	161403.7	349
0	1615110	161510.9	110
0	1617362	161736.1	105
0	1617716	161771.5	15
0	1619552	161955.1	117
0	1621694	162169.3	218
0	1622524	162252.3	217
0	1622832	162283.1	97
0	1623232	162323.1	261
0	1623772	162377.1	220
0	1624302	162430.1	16
0	1625400	162539.9	94
0	1627156	162715.5	22
0	1628038	162803.7	208
0	1629548	162954.7	14
0	1629730	162972.9	67
0	1633060	163305.9	28
0	1633138	163313.7	19
0	1633644	163364.3	29
0	1634324	163432.3	7
0	1635420	163541.9	386
0	1637554	163755.3	51
0	1641240	164123.9	8
0	1642980	164297.9	134
0	1644422	164442.1	11
0	1645994	164599.3	249
0	1647666	164766.5	60
0	1648300	164829.9	36
0	1648452	164845.1	96
0	1648852	164885.1	299
0	1649046	164904.5	45