version 3
run General-119-20230611-05:41:42-416636
attr configname General
attr datetime 20230611-05:41:42
attr datetimef 20230611-054142
attr experiment General
attr inifile omnetpp.ini
attr iterationvars $N=91
attr iterationvarsd N=91
attr iterationvarsf N=91-
attr measurement $N=91
attr network LN
attr processid 416636
attr repetition 3
attr replication #3
attr resultdir results
attr runnumber 119
attr seedset 119
itervar N 91
config network LN
config sim-time-limit 250000s
config **.tic[*].hopCount.result-recording-modes +vector
config *.numCentralNodes 91
config repeat 4

vector 0 LN.lnd[3] hopCount:vector ETV
attr interpolationmode none
attr recordingmode vector
attr source arrival
attr title "hop count"
vector 1 LN.lnd[8] hopCount:vector ETV
attr interpolationmode none
attr recordingmode vector
attr source arrival
attr title "hop count"
vector 2 LN.lnd[13] hopCount:vector ETV
attr interpolationmode none
attr recordingmode vector
attr source arrival
attr title "hop count"
vector 3 LN.lnd[6] hopCount:vector ETV
attr interpolationmode none
attr recordingmode vector
attr source arrival
attr title "hop count"
vector 4 LN.lnd[19] hopCount:vector ETV
attr interpolationmode none
attr recordingmode vector
attr source arrival
attr title "hop count"
vector 5 LN.lnd[2] hopCount:vector ETV
attr interpolationmode none
attr recordingmode vector
attr source arrival
attr title "hop count"
vector 6 LN.lnd[11] hopCount:vector ETV
attr interpolationmode none
attr recordingmode vector
attr source arrival
attr title "hop count"
vector 7 LN.lnd[4] hopCount:vector ETV
attr interpolationmode none
attr recordingmode vector
attr source arrival
attr title "hop count"
vector 8 LN.lnd[15] hopCount:vector ETV
attr interpolationmode none
attr recordingmode vector
attr source arrival
attr title "hop count"
vector 9 LN.lnd[18] hopCount:vector ETV
attr interpolationmode none
attr recordingmode vector
attr source arrival
attr title "hop count"
vector 10 LN.lnd[17] hopCount:vector ETV
attr interpolationmode none
attr recordingmode vector
attr source arrival
attr title "hop count"
vector 11 LN.lnd[12] hopCount:vector ETV
attr interpolationmode none
attr recordingmode vector
attr source arrival
attr title "hop count"
vector 12 LN.lnd[5] hopCount:vector ETV
attr interpolationmode none
attr recordingmode vector
attr source arrival
attr title "hop count"
vector 13 LN.lnd[14] hopCount:vector ETV
attr interpolationmode none
attr recordingmode vector
attr source arrival
attr title "hop count"
vector 14 LN.lnd[0] hopCount:vector ETV
attr interpolationmode none
attr recordingmode vector
attr source arrival
attr title "hop count"
vector 15 LN.lnd[7] hopCount:vector ETV
attr interpolationmode none
attr recordingmode vector
attr source arrival
attr title "hop count"
vector 16 LN.lnd[9] hopCount:vector ETV
attr interpolationmode none
attr recordingmode vector
attr source arrival
attr title "hop count"
vector 17 LN.lnd[16] hopCount:vector ETV
attr interpolationmode none
attr recordingmode vector
attr source arrival
attr title "hop count"
vector 18 LN.lnd[10] hopCount:vector ETV
attr interpolationmode none
attr recordingmode vector
attr source arrival
attr title "hop count"
vector 19 LN.lnd[1] hopCount:vector ETV
attr interpolationmode none
attr recordingmode vector
attr source arrival
attr title "hop count"
0	3	0.2	2
0	3269	326.8	36
0	4733	473.2	4
0	5095	509.4	26
0	7533	753.2	3
0	8257	825.6	4
0	8269	826.8	5
0	9021	902	3
0	9965	996.4	5
0	10135	1013.4	16
0	10671	1067	24
0	11143	1114.2	8
0	13899	1389.8	21
0	17221	1722	2
0	18233	1823.2	1
0	19117	1911.6	37
0	21177	2117.6	1
0	21981	2198	41
0	26329	2632.8	11
0	27289	2728.8	6
0	27577	2757.6	7
0	28297	2829.6	4
0	28851	2885	49
0	29015	2901.4	5
0	29253	2925.2	3
0	30055	3005.4	4
0	32629	3262.8	4
0	33685	3368.4	4
0	37549	3754.8	1
0	39291	3929	23
0	39465	3946.4	4
0	40737	4073.6	1
0	41923	4192.2	1
0	43385	4338.4	6
0	45857	4585.6	2
0	48171	4817	15
0	48369	4836.8	4
0	49119	4911.8	9
0	49355	4935.4	5
0	49391	4939	11
0	49671	4967	10
0	51497	5149.6	54
0	52261	5226	6
0	56503	5650.2	127
0	58631	5863	21
0	61333	6133.2	7
0	62415	6241.4	8
0	69381	6938	2
0	72797	7279.6	2
0	73201	7320	8
0	73325	7332.4	25
0	73679	7367.8	6
0	74105	7410.4	1
0	74175	7417.4	1
0	75075	7507.4	1
0	80393	8039.2	9
0	80409	8040.8	1
0	83279	8327.8	2
0	84549	8454.8	4
0	89639	8963.8	71
0	90671	9067	8
0	92651	9265	40
0	92889	9288.8	1
0	93701	9370	9
0	94485	9448.4	13
0	95075	9507.4	159
0	96285	9628.4	2
0	96963	9696.2	17
0	102175	10217.4	30
0	102303	10230.2	5
0	103213	10321.2	4
0	103773	10377.2	34
0	112589	11258.8	94
0	115291	11529	5
0	115873	11587.2	1
0	116515	11651.4	20
0	118055	11805.4	7
0	118245	11824.4	11
0	118677	11867.6	8
0	119197	11919.6	7
0	119407	11940.6	59
0	120553	12055.2	1
0	120697	12069.6	1
0	120807	12080.6	7
0	124475	12447.4	31
0	126437	12643.6	8
0	127015	12701.4	16
0	127277	12727.6	9
0	127333	12733.2	3
0	127735	12773.4	31
0	127737	12773.6	1
0	127749	12774.8	10
0	128465	12846.4	32
0	129709	12970.8	78
0	129783	12978.2	10
0	130577	13057.6	1
0	134485	13448.4	20
0	134787	13478.6	19
0	136717	13671.6	2
0	136861	13686	1
0	137673	13767.2	141
0	141163	14116.2	121
0	141267	14126.6	48
0	141361	14136	7
0	143591	14359	1
0	143841	14384	32
0	144477	14447.6	10
0	145469	14546.8	1
0	145709	14570.8	3
0	146585	14658.4	46
0	148471	14847	2
0	151333	15133.2	17
0	155873	15587.2	81
0	157083	15708.2	6
0	157545	15754.4	47
0	158577	15857.6	10
0	160287	16028.6	21
0	160561	16056	13
0	160707	16070.6	18
0	161209	16120.8	54
0	161591	16159	7
0	161677	16167.6	4
0	164619	16461.8	25
0	164645	16464.4	6
0	168057	16805.6	28
0	168231	16823	5
0	168315	16831.4	20
0	173435	17343.4	48
0	173489	17348.8	8
0	176493	17649.2	1
0	176615	17661.4	2
0	177217	17721.6	18
0	178507	17850.6	5
0	179007	17900.6	15
0	180205	18020.4	3
0	180735	18073.4	26
0	180809	18080.8	1
0	185013	18501.2	75
0	186203	18620.2	4
0	186481	18648	1
0	187009	18700.8	7
0	187025	18702.4	5
0	187545	18754.4	57
0	188705	18870.4	4
0	189855	18985.4	23
0	191991	19199	37
0	197315	19731.4	1
0	197725	19772.4	1
0	201255	20125.4	22
0	201405	20140.4	2
0	204149	20414.8	4
0	205659	20565.8	15
0	207137	20713.6	49
0	207219	20721.8	19
0	207607	20760.6	8
0	209443	20944.2	9
0	209811	20981	2
0	210945	21094.4	26
0	212215	21221.4	53
0	212541	21254	62
0	213447	21344.6	1
0	219269	21926.8	17
0	219815	21981.4	17
0	222335	22233.4	49
0	223491	22349	163
0	226259	22625.8	1
0	229197	22919.6	6
0	229471	22947	6
0	230943	23094.2	64
0	232277	23227.6	34
0	234185	23418.4	17
0	234421	23442	47
0	237117	23711.6	1
0	240795	24079.4	35
0	241593	24159.2	40
0	244039	24403.8	2
0	244555	24455.4	1
0	244821	24482	2
0	246269	24626.8	1
0	246371	24637	8
0	246463	24646.2	6
0	247029	24702.8	1
0	250431	25043	109
0	251955	25195.4	23
0	253267	25326.6	25
0	253767	25376.6	1
0	253933	25393.2	39
0	256665	25666.4	3
0	256747	25674.6	69
0	258453	25845.2	16
0	265155	26515.4	14
0	268215	26821.4	7
0	268307	26830.6	4
0	268361	26836	6
0	268755	26875.4	1
0	269513	26951.2	1
0	269891	26989	12
0	270049	27004.8	3
0	270323	27032.2	3
0	271913	27191.2	27
0	273119	27311.8	5
0	276231	27623	4
0	277505	27750.4	5
0	279561	27956	22
0	283513	28351.2	117
0	284171	28417	12
0	286327	28632.6	64
0	286479	28647.8	2
0	287517	28751.6	3
0	287731	28773	23
0	287823	28782.2	31
0	294301	29430	2
0	296277	29627.6	17
0	297605	29760.4	2
0	301097	30109.6	19
0	302577	30257.6	41
0	303197	30319.6	38
0	305873	30587.2	3
0	306053	30605.2	56
0	306785	30678.4	2
0	309137	30913.6	5
0	309965	30996.4	4
0	314041	31404	42
0	314343	31434.2	3
0	314965	31496.4	1
0	315077	31507.6	27
0	318197	31819.6	5
0	320161	32016	1
0	320187	32018.6	2
0	322417	32241.6	8
0	322501	32250	18
0	325151	32515	16
0	325383	32538.2	43
0	325931	32593	4
0	330793	33079.2	13
0	332323	33232.2	1
0	332357	33235.6	3
0	332925	33292.4	1
0	334709	33470.8	9
0	335081	33508	8
0	337127	33712.6	1
0	337657	33765.6	46
0	340473	34047.2	7
0	343859	34385.8	1
0	344281	34428	2
0	345495	34549.4	12
0	345603	34560.2	1
0	350243	35024.2	33
0	354601	35460	5
0	356789	35678.8	45
0	357069	35706.8	18
0	361111	36111	13
0	362291	36229	11
0	363051	36305	24
0	363717	36371.6	13
0	363817	36381.6	4
0	363913	36391.2	3
0	365069	36506.8	23
0	365465	36546.4	5
0	366341	36634	1
0	366483	36648.2	34
0	367161	36716	11
0	368463	36846.2	1
0	368683	36868.2	5
0	368747	36874.6	53
0	368925	36892.4	54
0	369251	36925	16
0	369333	36933.2	6
0	369911	36991	1
0	370475	37047.4	91
0	371605	37160.4	14
0	374361	37436	2
0	374989	37498.8	1
0	375943	37594.2	32
0	378433	37843.2	42
0	378939	37893.8	1
0	379607	37960.6	10
0	380631	38063	1
0	382287	38228.6	23
0	383475	38347.4	8
0	385059	38505.8	6
0	386553	38655.2	2
0	386643	38664.2	8
0	387055	38705.4	4
0	389863	38986.2	1
0	390037	39003.6	1
0	392753	39275.2	15
0	394759	39475.8	8
0	395303	39530.2	17
0	398043	39804.2	91
0	401123	40112.2	11
0	402857	40285.6	9
0	402947	40294.6	2
0	406181	40618	3
0	408029	40802.8	4
0	408153	40815.2	14
0	408761	40876	11
0	410657	41065.6	19
0	413271	41327	170
0	414275	41427.4	5
0	414459	41445.8	26
0	414795	41479.4	1
0	417041	41704	3
0	419019	41901.8	5
0	422309	42230.8	5
0	422521	42252	15
0	423171	42317	4
0	424371	42437	3
0	424623	42462.2	14
0	424695	42469.4	10
0	425597	42559.6	2
0	427031	42703	4
0	428303	42830.2	42
0	430013	43001.2	36
0	431627	43162.6	72
0	431687	43168.6	1
0	437765	43776.4	1
0	438383	43838.2	10
0	439931	43993	1
0	440567	44056.6	8
0	441389	44138.8	1
0	446685	44668.4	9
0	446931	44693	51
0	446975	44697.4	8
0	447145	44714.4	16
0	447859	44785.8	6
0	449549	44954.8	1
0	450117	45011.6	2
0	452183	45218.2	9
0	452415	45241.4	24
0	454521	45452	3
0	454919	45491.8	24
0	455697	45569.6	2
0	458067	45806.6	2
0	459227	45922.6	31
0	459787	45978.6	5
0	460023	46002.2	69
0	460209	46020.8	18
0	460645	46064.4	3
0	461029	46102.8	7
0	463277	46327.6	39
0	463567	46356.6	67
0	464211	46421	82
0	464649	46464.8	6
0	466641	46664	28
0	467713	46771.2	7
0	470549	47054.8	2
0	471387	47138.6	2
0	472169	47216.8	1
0	472407	47240.6	21
0	476335	47633.4	1
0	476605	47660.4	30
0	477167	47716.6	2
0	477337	47733.6	1
0	477631	47763	7
0	478803	47880.2	8
0	479479	47947.8	14
0	479859	47985.8	1
0	480181	48018	1
0	480623	48062.2	1
0	480911	48091	9
0	481029	48102.8	56
0	484381	48438	1
0	485819	48581.8	14
0	485961	48596	12
0	486555	48655.4	4
0	486933	48693.2	2
0	489683	48968.2	3
0	489881	48988	16
0	495733	49573.2	6
0	495989	49598.8	47
0	496617	49661.6	15
0	497525	49752.4	57
0	498647	49864.6	17
0	499389	49938.8	1
0	500979	50097.8	56
0	501209	50120.8	3
0	501671	50167	4
0	502679	50267.8	2
0	503089	50308.8	14
0	503405	50340.4	25
0	504613	50461.2	12
0	505881	50588	25
0	510001	51000	59
0	511971	51197	4
0	513509	51350.8	12
0	513803	51380.2	3
0	514315	51431.4	9
0	514941	51494	4
0	515353	51535.2	5
0	516861	51686	33
0	517855	51785.4	72
0	518163	51816.2	9
0	518519	51851.8	1
0	519981	51998	14
0	521853	52185.2	9
0	522383	52238.2	44
0	525231	52523	2
0	526633	52663.2	3
0	526639	52663.8	1
0	527755	52775.4	47
0	527911	52791	1
0	528495	52849.4	35
0	530151	53015	6
0	533497	53349.6	21
0	535275	53527.4	33
0	536531	53653	5
0	537295	53729.4	17
0	538323	53832.2	11
0	539051	53905	62
0	540323	54032.2	19
0	540465	54046.4	2
0	541053	54105.2	3
0	542559	54255.8	1
0	543843	54384.2	22
0	545655	54565.4	16
0	545723	54572.2	6
0	546129	54612.8	12
0	546459	54645.8	4
0	547687	54768.6	7
0	548735	54873.4	1
0	550177	55017.6	3
0	551621	55162	2
0	552609	55260.8	20
0	553241	55324	1
0	556953	55695.2	63
0	557517	55751.6	9
0	559253	55925.2	14
0	559737	55973.6	3
0	560339	56033.8	1
0	561439	56143.8	35
0	561755	56175.4	4
0	562073	56207.2	1
0	563709	56370.8	1
0	563797	56379.6	5
0	563857	56385.6	3
0	567791	56779	1
0	568117	56811.6	2
0	570995	57099.4	1
0	572401	57240	10
0	573323	57332.2	1
0	574221	57422	36
0	576947	57694.6	1
0	577529	57752.8	1
0	578179	57817.8	65
0	580647	58064.6	2
0	582701	58270	4
0	585991	58599	29
0	586231	58623	8
0	587595	58759.4	22
0	588189	58818.8	4
0	588317	58831.6	1
0	590317	59031.6	26
0	594287	59428.6	1
0	595261	59526	2
0	595541	59554	10
0	597433	59743.2	19
0	597469	59746.8	19
0	599417	59941.6	1
0	599939	59993.8	1
0	600813	60081.2	3
0	601357	60135.6	1
0	602051	60205	8
0	604803	60480.2	25
0	605303	60530.2	2
0	606607	60660.6	17
0	609589	60958.8	3
0	611073	61107.2	29
0	611301	61130	92
0	613789	61378.8	15
0	614659	61465.8	6
0	615445	61544.4	1
0	616727	61672.6	17
0	618555	61855.4	1
0	622997	62299.6	6
0	623581	62358	9
0	626403	62640.2	8
0	628655	62865.4	33
0	628869	62886.8	11
0	630913	63091.2	5
0	645469	64546.8	33
0	646517	64651.6	22
0	647437	64743.6	2
0	647495	64749.4	10
0	653569	65356.8	4
0	654095	65409.4	21
0	655341	65534	19
0	656145	65614.4	15
0	658141	65814	31
0	658519	65851.8	4
0	658663	65866.2	5
0	659197	65919.6	29
0	659969	65996.8	35
0	660939	66093.8	10
0	661713	66171.2	2
0	661899	66189.8	34
0	663821	66382	11
0	664047	66404.6	7
0	664081	66408	5
0	665771	66577	9
0	673815	67381.4	4
0	674347	67434.6	3
0	675539	67553.8	21
0	675591	67559	1
0	675595	67559.4	1
0	676801	67680	1
0	677641	67764	83
0	680953	68095.2	1
0	682817	68281.6	46
0	684883	68488.2	12
0	686177	68617.6	71
0	686753	68675.2	12
0	686845	68684.4	5
0	686901	68690	5
0	687041	68704	2
0	688929	68892.8	12
0	689621	68962	1
0	690987	69098.6	24
0	691081	69108	1
0	692217	69221.6	20
0	692373	69237.2	3
0	693151	69315	5
0	693911	69391	4
0	694443	69444.2	13
0	695599	69559.8	1
0	696893	69689.2	8
0	698515	69851.4	52
0	698827	69882.6	57
0	700099	70009.8	20
0	700291	70029	28
0	702481	70248	10
0	703995	70399.4	6
0	707233	70723.2	6
0	707837	70783.6	2
0	709033	70903.2	16
0	709311	70931	23
0	711293	71129.2	3
0	711299	71129.8	5
0	712433	71243.2	5
0	712891	71289	6
0	715497	71549.6	2
0	715775	71577.4	1
0	717375	71737.4	12
0	717545	71754.4	83
0	717645	71764.4	1
0	719177	71917.6	2
0	719693	71969.2	14
0	721767	72176.6	8
0	723927	72392.6	9
0	726027	72602.6	11
0	726663	72666.2	18
0	728491	72849	2
0	728767	72876.6	8
0	730085	73008.4	16
0	731579	73157.8	1
0	732139	73213.8	5
0	732255	73225.4	13
0	732333	73233.2	1
0	732771	73277	1
0	732915	73291.4	71
0	733071	73307	20
0	734765	73476.4	18
0	736207	73620.6	15
0	736461	73646	1
0	736499	73649.8	1
0	738481	73848	1
0	741853	74185.2	12
0	743737	74373.6	14
0	747305	74730.4	13
0	749805	74980.4	1
0	750109	75010.8	52
0	750699	75069.8	28
0	751471	75147	11
0	753507	75350.6	1
0	753589	75358.8	12
0	755973	75597.2	110
0	756355	75635.4	2
0	757351	75735	8
0	757371	75737	4
0	757975	75797.4	4
0	758521	75852	44
0	760207	76020.6	49
0	760825	76082.4	4
0	761101	76110	1
0	764795	76479.4	2
0	765083	76508.2	51
0	766057	76605.6	4
0	766115	76611.4	2
0	771715	77171.4	54
0	772409	77240.8	10
0	773975	77397.4	1
0	774133	77413.2	13
0	774335	77433.4	43
0	774393	77439.2	29
0	774715	77471.4	6
0	774909	77490.8	1
0	778785	77878.4	9
0	779695	77969.4	6
0	780647	78064.6	18
0	781335	78133.4	1
0	785579	78557.8	85
0	786793	78679.2	8
0	788983	78898.2	4
0	789077	78907.6	5
0	789183	78918.2	41
0	790501	79050	9
0	790697	79069.6	6
0	791239	79123.8	31
0	793391	79339	2
0	796141	79614	28
0	799489	79948.8	12
0	801255	80125.4	3
0	803253	80325.2	56
0	804785	80478.4	16
0	807525	80752.4	3
0	808565	80856.4	34
0	808577	80857.6	10
0	809581	80958	1
0	812055	81205.4	1
0	812245	81224.4	162
0	812859	81285.8	33
0	815169	81516.8	15
0	815309	81530.8	2
0	816659	81665.8	5
0	816905	81690.4	1
0	818965	81896.4	2
0	819967	81996.6	1
0	820419	82041.8	107
0	821343	82134.2	11
0	821963	82196.2	19
0	823549	82354.8	75
0	824995	82499.4	52
0	825555	82555.4	1
0	826381	82638	34
0	827017	82701.6	3
0	827847	82784.6	1
0	829715	82971.4	22
0	831163	83116.2	4
0	831411	83141	11
0	832035	83203.4	28
0	832415	83241.4	11
0	834771	83477	12
0	835005	83500.4	1
0	835119	83511.8	3
0	837057	83705.6	1
0	838161	83816	4
0	840537	84053.6	10
0	842819	84281.8	26
0	844983	84498.2	13
0	845139	84513.8	1
0	848221	84822	2
0	852733	85273.2	5
0	854291	85429	28
0	858613	85861.2	13
0	859563	85956.2	9
0	860517	86051.6	16
0	861789	86178.8	1
0	868301	86830	6
0	868499	86849.8	108
0	869001	86900	56
0	869171	86917	15
0	870093	87009.2	3
0	872595	87259.4	2
0	873099	87309.8	33
0	875181	87518	48
0	875281	87528	2
0	876623	87662.2	1
0	877309	87730.8	2
0	879483	87948.2	78
0	879755	87975.4	26
0	881815	88181.4	1
0	884263	88426.2	4
0	885563	88556.2	12
0	887069	88706.8	45
0	890119	89011.8	24
0	891129	89112.8	19
0	891249	89124.8	84
0	891831	89183	16
0	892045	89204.4	3
0	892481	89248	102
0	894933	89493.2	1
0	895481	89548	12
0	896369	89636.8	8
0	896515	89651.4	70
0	896627	89662.6	67
0	899037	89903.6	91
0	899803	89980.2	15
0	902493	90249.2	2
0	907533	90753.2	23
0	908287	90828.6	2
0	911293	91129.2	21
0	911705	91170.4	20
0	912133	91213.2	25
0	912651	91265	22
0	915317	91531.6	15
0	916609	91660.8	100
0	922647	92264.6	20
0	922737	92273.6	31
0	928175	92817.4	4
0	929325	92932.4	1
0	931421	93142	60
0	931733	93173.2	8
0	932631	93263	10
0	933123	93312.2	19
0	933479	93347.8	37
0	935275	93527.4	10
0	937327	93732.6	6
0	939445	93944.4	34
0	939627	93962.6	17
0	939651	93965	5
0	940399	94039.8	10
0	942733	94273.2	6
0	945563	94556.2	1
0	948511	94851	44
0	949169	94916.8	30
0	950353	95035.2	104
0	953335	95333.4	15
0	956293	95629.2	82
0	956775	95677.4	31
0	962185	96218.4	2
0	968565	96856.4	1
0	969071	96907	19
0	973399	97339.8	1
0	975627	97562.6	1
0	977055	97705.4	1
0	977731	97773	17
0	982341	98234	5
0	982949	98294.8	14
0	984035	98403.4	5
0	987139	98713.8	39
0	988239	98823.8	6
0	989237	98923.6	1
0	990419	99041.8	3
0	992037	99203.6	8
0	994327	99432.6	1
0	995101	99510	11
0	995287	99528.6	2
0	996419	99641.8	93
0	996731	99673	35
0	997987	99798.6	4
0	1001571	100157	53
0	1002067	100206.6	2
0	1005591	100559	1
0	1009473	100947.2	89
0	1011161	101116	26
0	1012133	101213.2	22
0	1012535	101253.4	1
0	1014259	101425.8	1
0	1015115	101511.4	12
0	1015773	101577.2	1
0	1016357	101635.6	14
0	1016905	101690.4	1
0	1017167	101716.6	11
0	1017237	101723.6	33
0	1019527	101952.6	42
0	1022501	102250	18
0	1022561	102256	1
0	1024019	102401.8	6
0	1024095	102409.4	40
0	1024519	102451.8	1
0	1024579	102457.8	4
0	1028063	102806.2	8
0	1029857	102985.6	6
0	1031713	103171.2	40
0	1032183	103218.2	2
0	1033131	103313	60
0	1034001	103400	2
0	1036001	103600	4
0	1036235	103623.4	52
0	1037077	103707.6	3
0	1037339	103733.8	20
0	1038251	103825	21
0	1041131	104113	2
0	1042657	104265.6	1
0	1043397	104339.6	2
0	1044409	104440.8	2
0	1046193	104619.2	8
0	1046657	104665.6	5
0	1048443	104844.2	1
0	1048825	104882.4	8
0	1049387	104938.6	8
0	1051895	105189.4	7
0	1052531	105253	7
0	1056029	105602.8	8
0	1056451	105645	10
0	1056651	105665	6
0	1057287	105728.6	73
0	1058017	105801.6	1
0	1058205	105820.4	4
0	1058621	105862	4
0	1059701	105970	9
0	1061019	106101.8	2
0	1061561	106156	48
0	1062655	106265.4	19
0	1064861	106486	2
0	1064867	106486.6	3
0	1066055	106605.4	23
0	1069285	106928.4	2
0	1069859	106985.8	11
0	1069945	106994.4	2
0	1072331	107233	3
0	1073307	107330.6	10
0	1076261	107626	25
0	1078401	107840	1
0	1078743	107874.2	19
0	1079777	107977.6	2
0	1080321	108032	81
0	1081787	108178.6	1
0	1082141	108214	1
0	1083275	108327.4	5
0	1084823	108482.2	2
0	1084835	108483.4	2
0	1084915	108491.4	16
0	1089017	108901.6	8
0	1090299	109029.8	8
0	1090545	109054.4	9
0	1090959	109095.8	38
0	1092013	109201.2	1
0	1093925	109392.4	89
0	1094813	109481.2	4
0	1096183	109618.2	1
0	1098525	109852.4	3
0	1099065	109906.4	4
0	1100403	110040.2	16
0	1103897	110389.6	12
0	1107075	110707.4	2
0	1107675	110767.4	45
0	1109091	110909	59
0	1110281	111028	5
0	1110605	111060.4	48
0	1115603	111560.2	2
0	1116621	111662	4
0	1117939	111793.8	24
0	1118701	111870	85
0	1119145	111914.4	31
0	1119741	111974	2
0	1123615	112361.4	2
0	1126671	112667	7
0	1126797	112679.6	1
0	1128135	112813.4	22
0	1128351	112835	62
0	1129081	112908	3
0	1130923	113092.2	1
0	1131121	113112	2
0	1132385	113238.4	12
0	1132545	113254.4	5
0	1137527	113752.6	77
0	1141779	114177.8	2
0	1142311	114231	2
0	1145427	114542.6	18
0	1147427	114742.6	29
0	1148857	114885.6	28
0	1149021	114902	57
0	1149667	114966.6	17
0	1152239	115223.8	31
0	1152795	115279.4	20
0	1153403	115340.2	62
0	1153421	115342	7
0	1153805	115380.4	4
0	1153989	115398.8	14
0	1154433	115443.2	19
0	1155971	115597	6
0	1157759	115775.8	2
0	1163057	116305.6	4
0	1163511	116351	85
0	1165923	116592.2	21
0	1167661	116766	4
0	1168497	116849.6	10
0	1168605	116860.4	6
0	1169615	116961.4	17
0	1175185	117518.4	12
0	1176499	117649.8	1
0	1177047	117704.6	6
0	1180511	118051	18
0	1181255	118125.4	11
0	1182571	118257	1
0	1185225	118522.4	7
0	1185241	118524	1
0	1188543	118854.2	4
0	1188621	118862	41
0	1188633	118863.2	9
0	1188997	118899.6	1
0	1189183	118918.2	9
0	1189661	118966	32
0	1189937	118993.6	1
0	1191419	119141.8	83
0	1191659	119165.8	23
0	1191997	119199.6	11
0	1192723	119272.2	8
0	1194987	119498.6	26
0	1195881	119588	2
0	1199657	119965.6	4
0	1200555	120055.4	11
0	1203027	120302.6	3
0	1204499	120449.8	1
0	1205777	120577.6	24
0	1206755	120675.4	8
0	1207081	120708	19
0	1207543	120754.2	63
0	1207719	120771.8	12
0	1208953	120895.2	7
0	1212195	121219.4	17
0	1213631	121363	66
0	1217321	121732	43
0	1223071	122307	2
0	1223329	122332.8	1
0	1225829	122582.8	22
0	1227711	122771	8
0	1228125	122812.4	14
0	1230661	123066	2
0	1232481	123248	2
0	1234047	123404.6	7
0	1238505	123850.4	16
0	1240641	124064	3
0	1241241	124124	22
0	1243351	124335	49
0	1246317	124631.6	41
0	1246901	124690	5
0	1248621	124862	22
0	1249529	124952.8	37
0	1250735	125073.4	43
0	1250951	125095	2
0	1250953	125095.2	1
0	1256175	125617.4	115
0	1258097	125809.6	1
0	1260653	126065.2	86
0	1261373	126137.2	5
0	1262151	126215	13
0	1264173	126417.2	10
0	1265301	126530	1
0	1266255	126625.4	24
0	1267391	126739	25
0	1268753	126875.2	2
0	1269813	126981.2	27
0	1269981	126998	4
0	1271555	127155.4	11
0	1278361	127836	9
0	1278549	127854.8	3
0	1279585	127958.4	2
0	1284019	128401.8	17
0	1285609	128560.8	1
0	1288217	128821.6	27
0	1290521	129052	99
0	1291487	129148.6	15
0	1291549	129154.8	11
0	1292191	129219	94
0	1294005	129400.4	1
0	1294261	129426	1
0	1295229	129522.8	5
0	1296211	129621	1
0	1296231	129623	1
0	1298657	129865.6	33
0	1299439	129943.8	19
0	1299475	129947.4	1
0	1302975	130297.4	14
0	1304757	130475.6	58
0	1305401	130540	28
0	1306573	130657.2	64
0	1309195	130919.4	1
0	1310555	131055.4	2
0	1311181	131118	11
0	1312505	131250.4	47
0	1316013	131601.2	19
0	1317673	131767.2	2
0	1318951	131895	4
0	1322909	132290.8	22
0	1323011	132301	11
0	1329151	132915	15
0	1333851	133385	34
0	1334967	133496.6	10
0	1335317	133531.6	1
0	1340805	134080.4	1
0	1341959	134195.8	4
0	1342743	134274.2	2
0	1345565	134556.4	1
0	1347215	134721.4	1
0	1347357	134735.6	1
0	1348181	134818	1
0	1349255	134925.4	8
0	1349475	134947.4	2
0	1349849	134984.8	14
0	1350449	135044.8	6
0	1351961	135196	1
0	1351983	135198.2	18
0	1352847	135284.6	24
0	1353423	135342.2	1
0	1353593	135359.2	25
0	1355097	135509.6	5
0	1358753	135875.2	18
0	1359321	135932	1
0	1360895	136089.4	40
0	1363837	136383.6	53
0	1364243	136424.2	87
0	1364301	136430	15
0	1366691	136669	4
0	1367183	136718.2	23
0	1367243	136724.2	25
0	1368389	136838.8	4
0	1369057	136905.6	2
0	1371907	137190.6	6
0	1373535	137353.4	5
0	1374995	137499.4	21
0	1375175	137517.4	4
0	1376605	137660.4	72
0	1379255	137925.4	16
0	1380239	138023.8	2
0	1382035	138203.4	11
0	1382063	138206.2	5
0	1383753	138375.2	26
0	1383779	138377.8	2
0	1383841	138384	11
0	1385775	138577.4	42
0	1386289	138628.8	5
0	1387625	138762.4	28
0	1387921	138792	4
0	1387993	138799.2	12
0	1392703	139270.2	44
0	1395117	139511.6	3
0	1398437	139843.6	7
0	1399757	139975.6	13
0	1400163	140016.2	12
0	1400935	140093.4	13
0	1402019	140201.8	58
0	1402199	140219.8	1
0	1403831	140383	2
0	1407517	140751.6	7
0	1407555	140755.4	1
0	1408569	140856.8	35
0	1409501	140950	7
0	1410689	141068.8	11
0	1411577	141157.6	18
0	1412779	141277.8	17
0	1413667	141366.6	1
0	1415471	141547	1
0	1416045	141604.4	11
0	1417033	141703.2	9
0	1417191	141719	10
0	1417447	141744.6	1
0	1418227	141822.6	30
0	1418461	141846	9
0	1419239	141923.8	26
0	1419707	141970.6	3
0	1421021	142102	22
0	1421267	142126.6	2
0	1421585	142158.4	2
0	1422007	142200.6	2
0	1422061	142206	2
0	1423811	142381	21
0	1425301	142530	31
0	1425391	142539	1
0	1426873	142687.2	59
0	1426939	142693.8	2
0	1427033	142703.2	3
0	1427887	142788.6	4
0	1428545	142854.4	20
0	1429265	142926.4	1
0	1429489	142948.8	10
0	1430215	143021.4	15
0	1431001	143100	15
0	1431465	143146.4	1
0	1437209	143720.8	41
0	1437803	143780.2	31
0	1439415	143941.4	7
0	1439597	143959.6	16
0	1440135	144013.4	1
0	1441865	144186.4	2
0	1442815	144281.4	10
0	1445725	144572.4	8
0	1446235	144623.4	10
0	1447619	144761.8	34
0	1449127	144912.6	9
0	1449329	144932.8	49
0	1449733	144973.2	6
0	1452053	145205.2	16
0	1455737	145573.6	1
0	1458063	145806.2	8
0	1459733	145973.2	23
0	1460335	146033.4	8
0	1460653	146065.2	5
0	1460997	146099.6	15
0	1462371	146237	54
0	1463047	146304.6	3
0	1463307	146330.6	37
0	1464797	146479.6	1
0	1465595	146559.4	6
0	1465607	146560.6	3
0	1466807	146680.6	50
0	1468263	146826.2	3
0	1468739	146873.8	4
0	1470407	147040.6	36
0	1473197	147319.6	9
0	1476071	147607	26
0	1476447	147644.6	43
0	1477251	147725	71
0	1478901	147890	7
0	1479747	147974.6	14
0	1480605	148060.4	16
0	1481429	148142.8	1
0	1482111	148211	55
0	1483311	148331	58
0	1484601	148460	69
0	1486733	148673.2	70
0	1487071	148707	1
0	1487279	148727.8	25
0	1488833	148883.2	1
0	1489799	148979.8	1
0	1492843	149284.2	1
0	1495329	149532.8	11
0	1495863	149586.2	3
0	1497091	149709	2
0	1497649	149764.8	3
0	1499431	149943	23
0	1500519	150051.8	59
0	1503401	150340	66
0	1504585	150458.4	6
0	1505633	150563.2	15
0	1507331	150733	3
0	1508321	150832	13
0	1509467	150946.6	75
0	1510307	151030.6	3
0	1510939	151093.8	13
0	1511721	151172	1
0	1512127	151212.6	3
0	1515223	151522.2	20
0	1515731	151573	21
0	1516835	151683.4	27
0	1517137	151713.6	5
0	1518241	151824	3
0	1518627	151862.6	3
0	1519493	151949.2	34
0	1520237	152023.6	1
0	1520675	152067.4	35
0	1525861	152586	6
0	1527061	152706	1
0	1529347	152934.6	1
0	1530497	153049.6	28
0	1530909	153090.8	1
0	1536593	153659.2	2
0	1536675	153667.4	2
0	1536795	153679.4	54
0	1537003	153700.2	6
0	1538001	153800	33
0	1538907	153890.6	27
0	1539501	153950	3
0	1539555	153955.4	28
0	1539709	153970.8	17
0	1539815	153981.4	18
0	1540723	154072.2	19
0	1541437	154143.6	17
0	1541489	154148.8	2
0	1544129	154412.8	1
0	1544841	154484	14
0	1548607	154860.6	16
0	1548643	154864.2	26
0	1551549	155154.8	2
0	1551571	155157	12
0	1551661	155166	27
0	1552825	155282.4	5
0	1553575	155357.4	108
0	1556711	155671	29
0	1558781	155878	20
0	1560727	156072.6	35
0	1561573	156157.2	8
0	1562877	156287.6	1
0	1563713	156371.2	4
0	1565165	156516.4	8
0	1565325	156532.4	1
0	1567113	156711.2	1
0	1567419	156741.8	3
0	1571097	157109.6	2
0	1571217	157121.6	20
0	1572675	157267.4	11
0	1573519	157351.8	7
0	1578319	157831.8	1
0	1579321	157932	9
0	1580699	158069.8	10
0	1581563	158156.2	39
0	1581719	158171.8	4
0	1586573	158657.2	43
0	1588219	158821.8	7
0	1589799	158979.8	7
0	1590131	159013	38
0	1590225	159022.4	3
0	1593191	159319	29
0	1597815	159781.4	3
0	1600299	160029.8	3
0	1603213	160321.2	8
0	1604875	160487.4	11
0	1604927	160492.6	3
0	1605739	160573.8	25
0	1608427	160842.6	12
0	1609475	160947.4	1
0	1609681	160968	12
0	1610099	161009.8	17
0	1611341	161134	13
0	1611971	161197	18
0	1612417	161241.6	19
0	1613421	161342	2
0	1613571	161357	6
0	1614147	161414.6	58
0	1614855	161485.4	1
0	1617103	161710.2	25
0	1618839	161883.8	4
0	1622251	162225	8
0	1625985	162598.4	2
0	1626647	162664.6	6
0	1629065	162906.4	1
0	1629707	162970.6	14
0	1630705	163070.4	11
0	1632019	163201.8	52
0	1632589	163258.8	7
0	1635573	163557.2	4
0	1635613	163561.2	4
0	1636285	163628.4	14
0	1637727	163772.6	1
0	1638943	163894.2	18
0	1643277	164327.6	73
0	1643323	164332.2	1
0	1643833	164383.2	47
0	1644687	164468.6	11
0	1647823	164782.2	27
0	1648695	164869.4	3
0	1648909	164890.8	16
0	1649965	164996.4	18
0	1650523	165052.2	26
0	1655569	165556.8	3
0	1659321	165932	12
0	1660517	166051.6	1
0	1661431	166143	11
0	1665445	166544.4	4
0	1665671	166567	10
0	1665819	166581.8	17
0	1666405	166640.4	31
0	1666587	166658.6	24
0	1666951	166695	2
0	1667677	166767.6	21
0	1668797	166879.6	2
0	1668811	166881	12
0	1669007	166900.6	2
0	1672129	167212.8	49
0	1672529	167252.8	18
0	1675413	167541.2	7
0	1676115	167611.4	12
0	1676663	167666.2	17
0	1678925	167892.4	11
0	1679783	167978.2	14
0	1679897	167989.6	1
0	1679961	167996	20
0	1682027	168202.6	13
0	1683045	168304.4	9
0	1687217	168721.6	21
0	1687507	168750.6	39
0	1687991	168799	4
0	1688587	168858.6	11
0	1691729	169172.8	11
0	1691833	169183.2	36
0	1694465	169446.4	7
0	1694707	169470.6	8
0	1695729	169572.8	46
0	1697595	169759.4	2
0	1700101	170010	2
0	1700271	170027	8
0	1703155	170315.4	40
0	1704297	170429.6	4
0	1707673	170767.2	3
0	1708241	170824	13
0	1708447	170844.6	25
0	1709223	170922.2	14
0	1709279	170927.8	1
0	1709725	170972.4	8
0	1712203	171220.2	21
0	1713369	171336.8	17
0	1716373	171637.2	13
0	1717469	171746.8	6
0	1718017	171801.6	2
0	1718581	171858	40
0	1719477	171947.6	4
0	1719851	171985	14
0	1719909	171990.8	4
0	1720079	172007.8	2
0	1726913	172691.2	4
0	1728137	172813.6	19
0	1729313	172931.2	6
0	1729373	172937.2	1
0	1730737	173073.6	8
0	1731067	173106.6	18
0	1731355	173135.4	5
0	1732509	173250.8	7
0	1735609	173560.8	3
0	1736781	173678	12
0	1736943	173694.2	12
0	1741367	174136.6	17
0	1743171	174317	2
0	1744527	174452.6	6
0	1744685	174468.4	7
0	1746201	174620	22
0	1750019	175001.8	22
0	1751833	175183.2	41
0	1753153	175315.2	2
0	1756257	175625.6	26
0	1756675	175667.4	48
0	1757213	175721.2	6
0	1757553	175755.2	2
0	1758977	175897.6	53
0	1761791	176179	7
0	1765587	176558.6	2
0	1768231	176823	2
0	1768527	176852.6	2
0	1768997	176899.6	1
0	1770363	177036.2	21
0	1771701	177170	25
0	1771717	177171.6	5
0	1772233	177223.2	9
0	1772359	177235.8	27
0	1773697	177369.6	55
0	1775965	177596.4	28
0	1776573	177657.2	112
0	1778045	177804.4	8
0	1779077	177907.6	11
0	1782161	178216	3
0	1787089	178708.8	10
0	1788791	178879	40
0	1792063	179206.2	17
0	1793437	179343.6	87
0	1793711	179371	35
0	1794837	179483.6	3
0	1797981	179798	4
0	1798493	179849.2	17
0	1798817	179881.6	1
0	1799657	179965.6	4
0	1802921	180292	59
0	1803759	180375.8	5
0	1803919	180391.8	27
0	1807765	180776.4	4
0	1810527	181052.6	87
0	1810915	181091.4	3
0	1811237	181123.6	1
0	1811653	181165.2	20
0	1811935	181193.4	10
0	1812313	181231.2	17
0	1817753	181775.2	90
0	1817867	181786.6	11
0	1818659	181865.8	5
0	1822335	182233.4	1
0	1822547	182254.6	2
0	1822553	182255.2	1