version 3
run General-105-20230611-05:41:39-416612
attr configname General
attr datetime 20230611-05:41:39
attr datetimef 20230611-054139
attr experiment General
attr inifile omnetpp.ini
attr iterationvars $N=82
attr iterationvarsd N=82
attr iterationvarsf N=82-
attr measurement $N=82
attr network LN
attr processid 416612
attr repetition 1
attr replication #1
attr resultdir results
attr runnumber 105
attr seedset 105
itervar N 82
config network LN
config sim-time-limit 250000s
config **.tic[*].hopCount.result-recording-modes +vector
config *.numCentralNodes 82
config repeat 4

vector 0 LN.lnd[1] hopCount:vector ETV
attr interpolationmode none
attr recordingmode vector
attr source arrival
attr title "hop count"
vector 1 LN.lnd[2] hopCount:vector ETV
attr interpolationmode none
attr recordingmode vector
attr source arrival
attr title "hop count"
vector 2 LN.lnd[16] hopCount:vector ETV
attr interpolationmode none
attr recordingmode vector
attr source arrival
attr title "hop count"
vector 3 LN.lnd[8] hopCount:vector ETV
attr interpolationmode none
attr recordingmode vector
attr source arrival
attr title "hop count"
vector 4 LN.lnd[12] hopCount:vector ETV
attr interpolationmode none
attr recordingmode vector
attr source arrival
attr title "hop count"
vector 5 LN.lnd[9] hopCount:vector ETV
attr interpolationmode none
attr recordingmode vector
attr source arrival
attr title "hop count"
vector 6 LN.lnd[10] hopCount:vector ETV
attr interpolationmode none
attr recordingmode vector
attr source arrival
attr title "hop count"
vector 7 LN.lnd[19] hopCount:vector ETV
attr interpolationmode none
attr recordingmode vector
attr source arrival
attr title "hop count"
vector 8 LN.lnd[18] hopCount:vector ETV
attr interpolationmode none
attr recordingmode vector
attr source arrival
attr title "hop count"
vector 9 LN.lnd[13] hopCount:vector ETV
attr interpolationmode none
attr recordingmode vector
attr source arrival
attr title "hop count"
vector 10 LN.lnd[4] hopCount:vector ETV
attr interpolationmode none
attr recordingmode vector
attr source arrival
attr title "hop count"
vector 11 LN.lnd[6] hopCount:vector ETV
attr interpolationmode none
attr recordingmode vector
attr source arrival
attr title "hop count"
vector 12 LN.lnd[11] hopCount:vector ETV
attr interpolationmode none
attr recordingmode vector
attr source arrival
attr title "hop count"
vector 13 LN.lnd[0] hopCount:vector ETV
attr interpolationmode none
attr recordingmode vector
attr source arrival
attr title "hop count"
vector 14 LN.lnd[3] hopCount:vector ETV
attr interpolationmode none
attr recordingmode vector
attr source arrival
attr title "hop count"
vector 15 LN.lnd[7] hopCount:vector ETV
attr interpolationmode none
attr recordingmode vector
attr source arrival
attr title "hop count"
vector 16 LN.lnd[15] hopCount:vector ETV
attr interpolationmode none
attr recordingmode vector
attr source arrival
attr title "hop count"
vector 17 LN.lnd[14] hopCount:vector ETV
attr interpolationmode none
attr recordingmode vector
attr source arrival
attr title "hop count"
vector 18 LN.lnd[17] hopCount:vector ETV
attr interpolationmode none
attr recordingmode vector
attr source arrival
attr title "hop count"
vector 19 LN.lnd[5] hopCount:vector ETV
attr interpolationmode none
attr recordingmode vector
attr source arrival
attr title "hop count"
0	11	1	10
0	1171	117	183
0	2993	299.2	19
0	3477	347.6	41
0	4135	413.4	241
0	6853	685.2	3
0	8761	876	14
0	10961	1096	12
0	11837	1183.6	44
0	13383	1338.2	60
0	14567	1456.6	39
0	18095	1809.4	5
0	18883	1888.2	11
0	20083	2008.2	56
0	20313	2031.2	50
0	21275	2127.4	229
0	22169	2216.8	136
0	24507	2450.6	20
0	24609	2460.8	45
0	26559	2655.8	18
0	26833	2683.2	1
0	27187	2718.6	2
0	28463	2846.2	94
0	29653	2965.2	452
0	30029	3002.8	46
0	30049	3004.8	19
0	31513	3151.2	5
0	33475	3347.4	26
0	35109	3510.8	97
0	36181	3618	24
0	41481	4148	36
0	42219	4221.8	47
0	48059	4805.8	34
0	49821	4982	4
0	50205	5020.4	140
0	51843	5184.2	134
0	54257	5425.6	26
0	54823	5482.2	15
0	55457	5545.6	15
0	56905	5690.4	223
0	58571	5857	269
0	59187	5918.6	12
0	61459	6145.8	26
0	61707	6170.6	79
0	62909	6290.8	514
0	65029	6502.8	40
0	65915	6591.4	3
0	67099	6709.8	49
0	67381	6738	127
0	67703	6770.2	29
0	68571	6857	4
0	70181	7018	52
0	72113	7211.2	14
0	72465	7246.4	27
0	74061	7406	51
0	74229	7422.8	146
0	75731	7573	4
0	76347	7634.6	226
0	78141	7814	8
0	79303	7930.2	147
0	80483	8048.2	119
0	81281	8128	163
0	82809	8280.8	102
0	83455	8345.4	105
0	86411	8641	37
0	87759	8775.8	43
0	90833	9083.2	68
0	93225	9322.4	85
0	95073	9507.2	52
0	97175	9717.4	12
0	98329	9832.8	14
0	99333	9933.2	193
0	101095	10109.4	223
0	102377	10237.6	24
0	104053	10405.2	107
0	104503	10450.2	144
0	104977	10497.6	23
0	107097	10709.6	36
0	109951	10995	1
0	112781	11278	5
0	113633	11363.2	88
0	113975	11397.4	34
0	114269	11426.8	2
0	114671	11467	83
0	115071	11507	8
0	115291	11529	69
0	116607	11660.6	35
0	117207	11720.6	106
0	119233	11923.2	92
0	120283	12028.2	137
0	120843	12084.2	52
0	121185	12118.4	17
0	123971	12397	18
0	125427	12542.6	17
0	128715	12871.4	41
0	128905	12890.4	27
0	130911	13091	65
0	131305	13130.4	6
0	132041	13204	1
0	133435	13343.4	4
0	135003	13500.2	9
0	139005	13900.4	36
0	139635	13963.4	31
0	140099	14009.8	44
0	140779	14077.8	22
0	141023	14102.2	15
0	142707	14270.6	195
0	143549	14354.8	31
0	145951	14595	115
0	147107	14710.6	69
0	147133	14713.2	9
0	149369	14936.8	157
0	149827	14982.6	162
0	152179	15217.8	1
0	152335	15233.4	14
0	154125	15412.4	29
0	154721	15472	25
0	154797	15479.6	2
0	155011	15501	26
0	155675	15567.4	5
0	157509	15750.8	9
0	158221	15822	163
0	158341	15834	68
0	158365	15836.4	21
0	158893	15889.2	12
0	159297	15929.6	22
0	163147	16314.6	357
0	163461	16346	134
0	164579	16457.8	9
0	167857	16785.6	7
0	169635	16963.4	13
0	169887	16988.6	184
0	171001	17100	121
0	171021	17102	6
0	173585	17358.4	83
0	174093	17409.2	12
0	174779	17477.8	39
0	176337	17633.6	19
0	177203	17720.2	253
0	177859	17785.8	5
0	178611	17861	14
0	179339	17933.8	395
0	180979	18097.8	55
0	181187	18118.6	2
0	182621	18262	329
0	182825	18282.4	21
0	184607	18460.6	49
0	186551	18655	18
0	186819	18681.8	29
0	189739	18973.8	233
0	193797	19379.6	137
0	194217	19421.6	99
0	197473	19747.2	67
0	198555	19855.4	164
0	199431	19943	22
0	199899	19989.8	167
0	200961	20096	60
0	201929	20192.8	385
0	204341	20434	1
0	204469	20446.8	43
0	204701	20470	173
0	205937	20593.6	64
0	207727	20772.6	65
0	207775	20777.4	13
0	210435	21043.4	8
0	215285	21528.4	76
0	216645	21664.4	37
0	219241	21924	272
0	222811	22281	131
0	224609	22460.8	91
0	225403	22540.2	232
0	227665	22766.4	56
0	229683	22968.2	133
0	231517	23151.6	29
0	234675	23467.4	145
0	235279	23527.8	96
0	236615	23661.4	202
0	236905	23690.4	108
0	238513	23851.2	154
0	241605	24160.4	14
0	242743	24274.2	11
0	242907	24290.6	30
0	244287	24428.6	66
0	245437	24543.6	23
0	247283	24728.2	131
0	248623	24862.2	31
0	249533	24953.2	12
0	249691	24969	9
0	249979	24997.8	87
0	252831	25283	1
0	254575	25457.4	6
0	254713	25471.2	47
0	255225	25522.4	281
0	257447	25744.6	151
0	260071	26007	56
0	264371	26437	145
0	265297	26529.6	13
0	265645	26564.4	65
0	266369	26636.8	1
0	268607	26860.6	167
0	268881	26888	71
0	270603	27060.2	58
0	271099	27109.8	41
0	272315	27231.4	169
0	274933	27493.2	287
0	275911	27591	205
0	277771	27777	26
0	278947	27894.6	9
0	279247	27924.6	15
0	281059	28105.8	219
0	281823	28182.2	201
0	282919	28291.8	269
0	284789	28478.8	141
0	286777	28677.6	209
0	287189	28718.8	195
0	287615	28761.4	5
0	288207	28820.6	21
0	294243	29424.2	11
0	296117	29611.6	210
0	296541	29654	4
0	296635	29663.4	36
0	296817	29681.6	58
0	297813	29781.2	156
0	298129	29812.8	2
0	299669	29966.8	3
0	303253	30325.2	27
0	304513	30451.2	53
0	306049	30604.8	93
0	306883	30688.2	127
0	307707	30770.6	46
0	310033	31003.2	2
0	313259	31325.8	8
0	314633	31463.2	2
0	316265	31626.4	236
0	316353	31635.2	4
0	317577	31757.6	183
0	319235	31923.4	195
0	319399	31939.8	77
0	320999	32099.8	265
0	321595	32159.4	229
0	321835	32183.4	9
0	321949	32194.8	31
0	324395	32439.4	80
0	325299	32529.8	3
0	325679	32567.8	144
0	327469	32746.8	50
0	328405	32840.4	138
0	328649	32864.8	25
0	329059	32905.8	218
0	330341	33034	32
0	332047	33204.6	141
0	333747	33374.6	279
0	336141	33614	2
0	338111	33811	47
0	338743	33874.2	59
0	339049	33904.8	97
0	342799	34279.8	2
0	343271	34327	42
0	343571	34357	38
0	344599	34459.8	308
0	345161	34516	127
0	346209	34620.8	44
0	346493	34649.2	33
0	356351	35635	97
0	356781	35678	57
0	358179	35817.8	15
0	360533	36053.2	68
0	361503	36150.2	47
0	361781	36178	50
0	364207	36420.6	211
0	366071	36607	260
0	367995	36799.4	7
0	368753	36875.2	107
0	369121	36912	129
0	369277	36927.6	49
0	370583	37058.2	30
0	376955	37695.4	133
0	377515	37751.4	217
0	379785	37978.4	171
0	380407	38040.6	236
0	382561	38256	29
0	385347	38534.6	117
0	385821	38582	7
0	385983	38598.2	85
0	386433	38643.2	9
0	387023	38702.2	2
0	387303	38730.2	63
0	388759	38875.8	144
0	388813	38881.2	23
0	389213	38921.2	100
0	390203	39020.2	4
0	391825	39182.4	105
0	392295	39229.4	3
0	395081	39508	152
0	396631	39663	43
0	398551	39855	28
0	398707	39870.6	76
0	400543	40054.2	57
0	401153	40115.2	9
0	402279	40227.8	226
0	402305	40230.4	3
0	402929	40292.8	4
0	409629	40962.8	19
0	412833	41283.2	16
0	417867	41786.6	52
0	418055	41805.4	36
0	419399	41939.8	8
0	420911	42091	20
0	421087	42108.6	7
0	422839	42283.8	4
0	423783	42378.2	91
0	424423	42442.2	161
0	426643	42664.2	48
0	427957	42795.6	223
0	429033	42903.2	214
0	430513	43051.2	23
0	435015	43501.4	51
0	435535	43553.4	229
0	436913	43691.2	19
0	437219	43721.8	34
0	437403	43740.2	58
0	439373	43937.2	167
0	439499	43949.8	114
0	442571	44257	2
0	444589	44458.8	286
0	444745	44474.4	11
0	444893	44489.2	75
0	448073	44807.2	55
0	449205	44920.4	73
0	450681	45068	3
0	450795	45079.4	31
0	454241	45424	72
0	454861	45486	17
0	455011	45501	41
0	457611	45761	21
0	458121	45812	95
0	458249	45824.8	65
0	459641	45964	38
0	461733	46173.2	18
0	464119	46411.8	264
0	464625	46462.4	2
0	466417	46641.6	192
0	470219	47021.8	40
0	473123	47312.2	262
0	476393	47639.2	1
0	476671	47667	71
0	477179	47717.8	32
0	477651	47765	80
0	478903	47890.2	612
0	479277	47927.6	165
0	480789	48078.8	34
0	481431	48143	20
0	486059	48605.8	2
0	486679	48667.8	293
0	487899	48789.8	149
0	487917	48791.6	6
0	487949	48794.8	31
0	488439	48843.8	223
0	488673	48867.2	40
0	489907	48990.6	10
0	491575	49157.4	163
0	491849	49184.8	129
0	493717	49371.6	56
0	494061	49406	202
0	494151	49415	9
0	494899	49489.8	56
0	496709	49670.8	351
0	499019	49901.8	2
0	501463	50146.2	229
0	502775	50277.4	93
0	503707	50370.6	28
0	505173	50517.2	67
0	505991	50599	27
0	506391	50639	28
0	508405	50840.4	21
0	510175	51017.4	143
0	510597	51059.6	23
0	511061	51106	86
0	511507	51150.6	190
0	512975	51297.4	190
0	513371	51337	48
0	513931	51393	21
0	515281	51528	67
0	516563	51656.2	90
0	517739	51773.8	17
0	520027	52002.6	34
0	521563	52156.2	15
0	521713	52171.2	116
0	522475	52247.4	277
0	523645	52364.4	23
0	524065	52406.4	70
0	524209	52420.8	13
0	524889	52488.8	89
0	525993	52599.2	397
0	527951	52795	206
0	528233	52823.2	55
0	529125	52912.4	47
0	529945	52994.4	79
0	530669	53066.8	65
0	531039	53103.8	215
0	531925	53192.4	68
0	533687	53368.6	90
0	537089	53708.8	230
0	537655	53765.4	13
0	539591	53959	87
0	540729	54072.8	69
0	540895	54089.4	10
0	543897	54389.6	104
0	545981	54598	41
0	546647	54664.6	168
0	546991	54699	14
0	547875	54787.4	39
0	549557	54955.6	181
0	550397	55039.6	48
0	551199	55119.8	145
0	551799	55179.8	16
0	552185	55218.4	2
0	555443	55544.2	335
0	556255	55625.4	115
0	556361	55636	64
0	556387	55638.6	8
0	556995	55699.4	165
0	559161	55916	29
0	560183	56018.2	179
0	563589	56358.8	83
0	563973	56397.2	50
0	564801	56480	11
0	567793	56779.2	11
0	568773	56877.2	21
0	571079	57107.8	60
0	573329	57332.8	190
0	576197	57619.6	2
0	576585	57658.4	22
0	576915	57691.4	38
0	578709	57870.8	18
0	579223	57922.2	129
0	579471	57947	63
0	579575	57957.4	81
0	581403	58140.2	50
0	582009	58200.8	41
0	582843	58284.2	67
0	584989	58498.8	286
0	585383	58538.2	17
0	585647	58564.6	29
0	587429	58742.8	48
0	588525	58852.4	131
0	588887	58888.6	7
0	591129	59112.8	11
0	594427	59442.6	41
0	595263	59526.2	3
0	596357	59635.6	12
0	598283	59828.2	49
0	599139	59913.8	126
0	600181	60018	6
0	600709	60070.8	95
0	601375	60137.4	11
0	603579	60357.8	135
0	606225	60622.4	76
0	609327	60932.6	12
0	609723	60972.2	64
0	610217	61021.6	4
0	613031	61303	33
0	614027	61402.6	194
0	614943	61494.2	105
0	616049	61604.8	52
0	616897	61689.6	30
0	620119	62011.8	38
0	620871	62087	18
0	623271	62327	203
0	623569	62356.8	15
0	625373	62537.2	342
0	626533	62653.2	70
0	628135	62813.4	90
0	628829	62882.8	59
0	629313	62931.2	111
0	631029	63102.8	6
0	636859	63685.8	128
0	637671	63767	31
0	638047	63804.6	60
0	638225	63822.4	103
0	638753	63875.2	58
0	639529	63952.8	125
0	639601	63960	35
0	639821	63982	66
0	640141	64014	2
0	643153	64315.2	57
0	644579	64457.8	3
0	648793	64879.2	26
0	649323	64932.2	188
0	650849	65084.8	30
0	653265	65326.4	90
0	653949	65394.8	244
0	654619	65461.8	77
0	656631	65663	78
0	658377	65837.6	23
0	659019	65901.8	119
0	659275	65927.4	10
0	659601	65960	17
0	660481	66048	15
0	660913	66091.2	49
0	662537	66253.6	139
0	664213	66421.2	34
0	665535	66553.4	5
0	666855	66685.4	52
0	667193	66719.2	54
0	667247	66724.6	45
0	667323	66732.2	28
0	667587	66758.6	7
0	668317	66831.6	36
0	669549	66954.8	35
0	671371	67137	125
0	671697	67169.6	225
0	673397	67339.6	144
0	673539	67353.8	9
0	674405	67440.4	353
0	680131	68013	100
0	681001	68100	121
0	681057	68105.6	45
0	681157	68115.6	90
0	683251	68325	52
0	684177	68417.6	75
0	685271	68527	165
0	686417	68641.6	27
0	688427	68842.6	139
0	689679	68967.8	33
0	689747	68974.6	48
0	690925	69092.4	52
0	695543	69554.2	14
0	697237	69723.6	87
0	698953	69895.2	97
0	703657	70365.6	68
0	704141	70414	2
0	704907	70490.6	180
0	705309	70530.8	7
0	713837	71383.6	14
0	714611	71461	28
0	716579	71657.8	179
0	716943	71694.2	50
0	717263	71726.2	117
0	717295	71729.4	5
0	718031	71803	51
0	718829	71882.8	2
0	719945	71994.4	2
0	720387	72038.6	3
0	720851	72085	75
0	721123	72112.2	259
0	722321	72232	5
0	724263	72426.2	30
0	724999	72499.8	60
0	726319	72631.8	8
0	727267	72726.6	91
0	728121	72812	54
0	728351	72835	96
0	729089	72908.8	13
0	730401	73040	366
0	732863	73286.2	572
0	733215	73321.4	138
0	734501	73450	318
0	736533	73653.2	49
0	742695	74269.4	71
0	743061	74306	104
0	746353	74635.2	24
0	746757	74675.6	49
0	750051	75005	20
0	751415	75141.4	18
0	752645	75264.4	69
0	753255	75325.4	92
0	755981	75598	185
0	758053	75805.2	129
0	758283	75828.2	40
0	759221	75922	3
0	760513	76051.2	29
0	763637	76363.6	24
0	767257	76725.6	37
0	767927	76792.6	114
0	768179	76817.8	95
0	769053	76905.2	21
0	769699	76969.8	3
0	769841	76984	79
0	772149	77214.8	31
0	772705	77270.4	354
0	776093	77609.2	67
0	777139	77713.8	7
0	777235	77723.4	78
0	778237	77823.6	82
0	779423	77942.2	38
0	779807	77980.6	378
0	782323	78232.2	14
0	783715	78371.4	53
0	785299	78529.8	36
0	789059	78905.8	10
0	790041	79004	66
0	790887	79088.6	92
0	791329	79132.8	16
0	792487	79248.6	194
0	792745	79274.4	39
0	793695	79369.4	74
0	800805	80080.4	105
0	801701	80170	6
0	803381	80338	57
0	803697	80369.6	53
0	805567	80556.6	72
0	806637	80663.6	81
0	807379	80737.8	36
0	809001	80900	13
0	809225	80922.4	51
0	809273	80927.2	13
0	810011	81001	37
0	811889	81188.8	82
0	814825	81482.4	5
0	815091	81509	35
0	816195	81619.4	83
0	817843	81784.2	70
0	818245	81824.4	115
0	819123	81912.2	58
0	819243	81924.2	111
0	819821	81982	92
0	819847	81984.6	13
0	821179	82117.8	8
0	821595	82159.4	7
0	822993	82299.2	1
0	823709	82370.8	143
0	823863	82386.2	54
0	824117	82411.6	57
0	824335	82433.4	5
0	825361	82536	46
0	826769	82676.8	156
0	828843	82884.2	194
0	829259	82925.8	29
0	831169	83116.8	31
0	833007	83300.6	52
0	834089	83408.8	33
0	834877	83487.6	106
0	835593	83559.2	103
0	836433	83643.2	10
0	836543	83654.2	49
0	836751	83675	42
0	837941	83794	2
0	838769	83876.8	145
0	839531	83953	158
0	839819	83981.8	93
0	842231	84223	152
0	843273	84327.2	414
0	845725	84572.4	39
0	846347	84634.6	146
0	848683	84868.2	2
0	849297	84929.6	38
0	849377	84937.6	78
0	852441	85244	6
0	852633	85263.2	15
0	853609	85360.8	3
0	854261	85426	8
0	855307	85530.6	22
0	856987	85698.6	223
0	860439	86043.8	73
0	860535	86053.4	1
0	861899	86189.8	51
0	863519	86351.8	30
0	865085	86508.4	33
0	867417	86741.6	13
0	869791	86979	77
0	870599	87059.8	93
0	871403	87140.2	182
0	872087	87208.6	45
0	873625	87362.4	101
0	875555	87555.4	67
0	878203	87820.2	65
0	878471	87847	72
0	880083	88008.2	97
0	881783	88178.2	389
0	882061	88206	70
0	882213	88221.2	55
0	882643	88264.2	3
0	883661	88366	22
0	885229	88522.8	111
0	887157	88715.6	141
0	889195	88919.4	11
0	889667	88966.6	3
0	891555	89155.4	67
0	891699	89169.8	93
0	897171	89717	19
0	897635	89763.4	35
0	899661	89966	13
0	900283	90028.2	124
0	901565	90156.4	17
0	902617	90261.6	21
0	905669	90566.8	35
0	907397	90739.6	2
0	908983	90898.2	57
0	912263	91226.2	27
0	912983	91298.2	14
0	913983	91398.2	24
0	919039	91903.8	95
0	920421	92042	78
0	920497	92049.6	62
0	922191	92219	331
0	922853	92285.2	183
0	926275	92627.4	29
0	927123	92712.2	59
0	929275	92927.4	80
0	930679	93067.8	11
0	931627	93162.6	8
0	932309	93230.8	145
0	932877	93287.6	89
0	933981	93398	404
0	936935	93693.4	309
0	937093	93709.2	122
0	937453	93745.2	94
0	940749	94074.8	325
0	941149	94114.8	37
0	941635	94163.4	37
0	944585	94458.4	107
0	945349	94534.8	63
0	945549	94554.8	46
0	947359	94735.8	63
0	948429	94842.8	5
0	948743	94874.2	51
0	949579	94957.8	137
0	950703	95070.2	92
0	951601	95160	26
0	952431	95243	11
0	952529	95252.8	31
0	952685	95268.4	109
0	953493	95349.2	340
0	957383	95738.2	81
0	959641	95964	131
0	960095	96009.4	6
0	964251	96425	12
0	964389	96438.8	12
0	964499	96449.8	3
0	964501	96450	1
0	965073	96507.2	35
0	966559	96655.8	6
0	967173	96717.2	40
0	967557	96755.6	65
0	967565	96756.4	6
0	967691	96769	122
0	968261	96826	13
0	968817	96881.6	3
0	968955	96895.4	25
0	974235	97423.4	203
0	975463	97546.2	107
0	976151	97615	4
0	976657	97665.6	315
0	978789	97878.8	79
0	979053	97905.2	37
0	980885	98088.4	19
0	982221	98222	81
0	982629	98262.8	215
0	985135	98513.4	22
0	985549	98554.8	201
0	986247	98624.6	76
0	987425	98742.4	103
0	989495	98949.4	20
0	993123	99312.2	30
0	993157	99315.6	5
0	994989	99498.8	59
0	995157	99515.6	17
0	995941	99594	270
0	996045	99604.4	75
0	998575	99857.4	97
0	1002255	100225.4	24
0	1003631	100363	565
0	1003837	100383.6	5
0	1006865	100686.4	12
0	1009979	100997.8	51
0	1010611	101061	134
0	1010917	101091.6	271
0	1013343	101334.2	20
0	1014085	101408.4	17
0	1018345	101834.4	53
0	1019693	101969.2	78
0	1021039	102103.8	95
0	1022289	102228.8	151
0	1022353	102235.2	6
0	1022373	102237.2	13
0	1022863	102286.2	90
0	1023739	102373.8	110
0	1025423	102542.2	77
0	1029883	102988.2	10
0	1031511	103151	66
0	1034219	103421.8	63
0	1035707	103570.6	32
0	1037819	103781.8	126
0	1038495	103849.4	71
0	1039097	103909.6	67
0	1042451	104245	42
0	1043945	104394.4	224
0	1044381	104438	44
0	1044639	104463.8	11
0	1044945	104494.4	87
0	1045783	104578.2	297
0	1045945	104594.4	91
0	1049411	104941	28
0	1050587	105058.6	210
0	1051525	105152.4	28
0	1051977	105197.6	1
0	1055779	105577.8	130
0	1059675	105967.4	1
0	1060267	106026.6	9
0	1061307	106130.6	91
0	1062375	106237.4	4
0	1062551	106255	53
0	1062953	106295.2	78
0	1063517	106351.6	67
0	1063775	106377.4	3
0	1064317	106431.6	17
0	1065967	106596.6	124
0	1066097	106609.6	111
0	1068721	106872	44
0	1070413	107041.2	17
0	1071047	107104.6	30
0	1071515	107151.4	175
0	1072073	107207.2	99
0	1073713	107371.2	27
0	1074695	107469.4	2
0	1075247	107524.6	1
0	1076861	107686	202
0	1077801	107780	348
0	1078751	107875	20
0	1079105	107910.4	26
0	1079749	107974.8	124
0	1080635	108063.4	5
0	1085959	108595.8	85
0	1086575	108657.4	7
0	1087741	108774	469
0	1087987	108798.6	50
0	1089965	108996.4	173
0	1090049	109004.8	4
0	1091375	109137.4	111
0	1093125	109312.4	87
0	1093653	109365.2	67
0	1093657	109365.6	3
0	1093715	109371.4	45
0	1094601	109460	4
0	1095545	109554.4	167
0	1096175	109617.4	26
0	1096607	109660.6	36
0	1096929	109692.8	8
0	1098849	109884.8	21
0	1099255	109925.4	1
0	1100241	110024	134
0	1101055	110105.4	82
0	1103349	110334.8	119
0	1105487	110548.6	14
0	1109021	110902	98
0	1109907	110990.6	222
0	1111587	111158.6	4
0	1116709	111670.8	332
0	1117379	111737.8	123
0	1121077	112107.6	185
0	1122435	112243.4	2
0	1123229	112322.8	35
0	1124837	112483.6	8
0	1126275	112627.4	213
0	1126327	112632.6	5
0	1127015	112701.4	19
0	1127445	112744.4	163
0	1127857	112785.6	34
0	1131013	113101.2	58
0	1131617	113161.6	29
0	1132451	113245	140
0	1133367	113336.6	90
0	1133579	113357.8	27
0	1134489	113448.8	114
0	1136869	113686.8	54
0	1140003	114000.2	76
0	1141235	114123.4	6
0	1141633	114163.2	59
0	1142379	114237.8	48
0	1147077	114707.6	32
0	1149357	114935.6	41
0	1149623	114962.2	111
0	1149911	114991	28
0	1150349	115034.8	30
0	1155753	115575.2	138
0	1156503	115650.2	6
0	1156631	115663	72
0	1156917	115691.6	91
0	1158573	115857.2	282
0	1159843	115984.2	48
0	1160729	116072.8	58
0	1162999	116299.8	130
0	1163099	116309.8	59
0	1163343	116334.2	44
0	1163687	116368.6	19
0	1164631	116463	13
0	1167893	116789.2	27
0	1170073	117007.2	3
0	1170401	117040	38
0	1170527	117052.6	37
0	1171113	117111.2	40
0	1172197	117219.6	128
0	1174631	117463	65
0	1177093	117709.2	30
0	1177335	117733.4	146
0	1177363	117736.2	8
0	1178663	117866.2	86
0	1179603	117960.2	84
0	1180161	118016	85
0	1180927	118092.6	7
0	1183243	118324.2	3
0	1183827	118382.6	128
0	1185193	118519.2	39
0	1186577	118657.6	188
0	1186625	118662.4	35
0	1187001	118700	39
0	1188321	118832	52
0	1189615	118961.4	31
0	1190769	119076.8	104
0	1191341	119134	4
0	1191865	119186.4	141
0	1194113	119411.2	1
0	1194249	119424.8	120
0	1194527	119452.6	1
0	1198435	119843.4	107
0	1200347	120034.6	177
0	1200767	120076.6	80
0	1201131	120113	152
0	1201945	120194.4	22
0	1202567	120256.6	41
0	1202893	120289.2	95
0	1203389	120338.8	116
0	1204703	120470.2	2
0	1205741	120574	44
0	1209453	120945.2	1
0	1213533	121353.2	509
0	1214089	121408.8	69
0	1219049	121904.8	14
0	1220257	122025.6	12
0	1220283	122028.2	9
0	1220717	122071.6	69
0	1221003	122100.2	57
0	1222317	122231.6	154
0	1222935	122293.4	89
0	1223169	122316.8	4
0	1223565	122356.4	45
0	1226099	122609.8	120
0	1228571	122857	82
0	1231631	123163	331
0	1234647	123464.6	68
0	1236273	123627.2	3
0	1238137	123813.6	218
0	1238203	123820.2	8
0	1241045	124104.4	48
0	1241479	124147.8	95
0	1242867	124286.6	73
0	1242915	124291.4	2
0	1243115	124311.4	7
0	1243887	124388.6	85
0	1244825	124482.4	118
0	1247865	124786.4	105
0	1250577	125057.6	5
0	1251413	125141.2	32
0	1252633	125263.2	24
0	1255217	125521.6	216
0	1255849	125584.8	19
0	1256245	125624.4	164
0	1258341	125834	30
0	1261991	126199	109
0	1263315	126331.4	58
0	1264335	126433.4	41
0	1265013	126501.2	347
0	1265915	126591.4	44
0	1266289	126628.8	65
0	1267629	126762.8	6
0	1269967	126996.6	75
0	1270665	127066.4	226
0	1272009	127200.8	137
0	1272195	127219.4	120
0	1273091	127309	77
0	1273947	127394.6	10
0	1274761	127476	55
0	1274885	127488.4	41
0	1275261	127526	22
0	1275673	127567.2	283
0	1277233	127723.2	39
0	1277733	127773.2	61
0	1278131	127813	148
0	1279939	127993.8	60
0	1280583	128058.2	258
0	1282375	128237.4	67
0	1283781	128378	5
0	1287129	128712.8	196
0	1287243	128724.2	16
0	1290463	129046.2	95
0	1293317	129331.6	5
0	1293701	129370	65
0	1294337	129433.6	128
0	1297547	129754.6	50
0	1298797	129879.6	41
0	1299923	129992.2	39
0	1300007	130000.6	13
0	1306371	130637	16
0	1307055	130705.4	55
0	1307457	130745.6	51
0	1307827	130782.6	10
0	1307981	130798	17
0	1308407	130840.6	17
0	1309467	130946.6	10
0	1310743	131074.2	1
0	1311199	131119.8	30
0	1312287	131228.6	70
0	1313063	131306.2	66
0	1313325	131332.4	76
0	1315071	131507	27
0	1315863	131586.2	337
0	1319085	131908.4	88
0	1319479	131947.8	149
0	1319589	131958.8	51
0	1323703	132370.2	20
0	1324325	132432.4	11
0	1325237	132523.6	141
0	1327311	132731	3
0	1328095	132809.4	11
0	1330329	133032.8	14
0	1330547	133054.6	10
0	1332633	133263.2	17
0	1334093	133409.2	194
0	1335859	133585.8	11
0	1338031	133803	35
0	1339181	133918	27
0	1339579	133957.8	331
0	1344363	134436.2	60
0	1346317	134631.6	149
0	1346739	134673.8	107
0	1347207	134720.6	31
0	1348583	134858.2	93
0	1350767	135076.6	305
0	1351051	135105	42
0	1352025	135202.4	17
0	1354903	135490.2	163
0	1357913	135791.2	23
0	1360261	136026	83
0	1360279	136027.8	16
0	1360747	136074.6	124
0	1361479	136147.8	12
0	1361895	136189.4	172
0	1362443	136244.2	55
0	1365299	136529.8	95
0	1365589	136558.8	205
0	1366975	136697.4	68
0	1370281	137028	42
0	1373355	137335.4	134
0	1375807	137580.6	11
0	1376325	137632.4	39
0	1378535	137853.4	215
0	1379877	137987.6	7
0	1380095	138009.4	11
0	1380797	138079.6	14
0	1382557	138255.6	26
0	1382785	138278.4	9
0	1389489	138948.8	99
0	1389989	138998.8	7
0	1391375	139137.4	11
0	1393869	139386.8	1
0	1396065	139606.4	4
0	1396115	139611.4	45
0	1396141	139614	19
0	1403305	140330.4	38
0	1407059	140705.8	88
0	1407979	140797.8	20
0	1408207	140820.6	226
0	1411313	141131.2	21
0	1411489	141148.8	136
0	1413447	141344.6	89
0	1414417	141441.6	46
0	1414733	141473.2	13
0	1415135	141513.4	132
0	1416199	141619.8	3
0	1417921	141792	49
0	1419133	141913.2	274
0	1422589	142258.8	172
0	1422989	142298.8	104
0	1425375	142537.4	129
0	1425469	142546.8	6
0	1426251	142625	24
0	1427919	142791.8	21
0	1429113	142911.2	30
0	1431855	143185.4	44
0	1434463	143446.2	109
0	1435523	143552.2	225
0	1436627	143662.6	357
0	1437003	143700.2	32
0	1438317	143831.6	85
0	1439211	143921	28
0	1441585	144158.4	40
0	1442571	144257	23
0	1442993	144299.2	43
0	1443775	144377.4	14
0	1445849	144584.8	33
0	1446303	144630.2	99
0	1447027	144702.6	3
0	1449293	144929.2	146
0	1449523	144952.2	190
0	1450257	145025.6	117
0	1452159	145215.8	74
0	1453751	145375	14
0	1454927	145492.6	8
0	1455457	145545.6	8
0	1456921	145692	9
0	1458143	145814.2	181
0	1458217	145821.6	53
0	1460049	146004.8	100
0	1460329	146032.8	152
0	1460525	146052.4	5
0	1461993	146199.2	30
0	1462067	146206.6	48
0	1463145	146314.4	51
0	1464765	146476.4	31
0	1468395	146839.4	21
0	1471863	147186.2	79
0	1474319	147431.8	58
0	1477473	147747.2	2
0	1479939	147993.8	84
0	1480265	148026.4	65
0	1480469	148046.8	132
0	1480511	148051	41
0	1481331	148133	101
0	1483009	148300.8	61
0	1483491	148349	6
0	1484831	148483	13
0	1485557	148555.6	41
0	1485733	148573.2	8
0	1490359	149035.8	186
0	1490825	149082.4	30
0	1491113	149111.2	33
0	1496219	149621.8	29
0	1497305	149730.4	23
0	1498377	149837.6	61
0	1498959	149895.8	5
0	1499291	149929	276
0	1501137	150113.6	15
0	1502909	150290.8	229
0	1504565	150456.4	38
0	1504739	150473.8	15
0	1505847	150584.6	72
0	1506431	150643	45
0	1507859	150785.8	33
0	1508459	150845.8	110
0	1508991	150899	159
0	1509185	150918.4	35
0	1509631	150963	121
0	1510211	151021	93
0	1510213	151021.2	1
0	1510701	151070	6
0	1511679	151167.8	144
0	1513361	151336	277
0	1514361	151436	120
0	1514859	151485.8	66
0	1516817	151681.6	16
0	1521529	152152.8	3
0	1522605	152260.4	59
0	1524189	152418.8	136
0	1525125	152512.4	18
0	1525191	152519	37
0	1525789	152578.8	28
0	1526229	152622.8	307
0	1527689	152768.8	194
0	1529047	152904.6	186
0	1529229	152922.8	92
0	1532437	153243.6	134
0	1532741	153274	138
0	1536273	153627.2	28
0	1538309	153830.8	185
0	1539023	153902.2	129
0	1539269	153926.8	34
0	1539713	153971.2	6
0	1539775	153977.4	4
0	1540989	154098.8	85
0	1541289	154128.8	170
0	1541667	154166.6	82
0	1542887	154288.6	107
0	1546687	154668.6	357
0	1547231	154723	70
0	1547415	154741.4	107
0	1548287	154828.6	66
0	1548839	154883.8	115
0	1549995	154999.4	229
0	1553065	155306.4	313
0	1553215	155321.4	9
0	1554007	155400.6	7
0	1554149	155414.8	14
0	1554533	155453.2	113
0	1554983	155498.2	5
0	1555735	155573.4	56
0	1557477	155747.6	79
0	1557527	155752.6	48
0	1557871	155787	22
0	1558813	155881.2	157
0	1559043	155904.2	1
0	1559171	155917	84
0	1560599	156059.8	404
0	1560839	156083.8	20
0	1562543	156254.2	54
0	1563279	156327.8	165
0	1564767	156476.6	109
0	1564929	156492.8	24
0	1565353	156535.2	82
0	1568553	156855.2	554
0	1572069	157206.8	65
0	1572587	157258.6	81
0	1573715	157371.4	183
0	1575629	157562.8	127
0	1578819	157881.8	85
0	1579457	157945.6	31
0	1580695	158069.4	72
0	1581721	158172	16
0	1582515	158251.4	116
0	1583205	158320.4	3
0	1585855	158585.4	16
0	1586483	158648.2	48
0	1589575	158957.4	3
0	1590513	159051.2	9
0	1591437	159143.6	258
0	1592177	159217.6	212
0	1593185	159318.4	68
0	1594755	159475.4	74
0	1597877	159787.6	28
0	1602609	160260.8	54
0	1605329	160532.8	45
0	1607829	160782.8	81
0	1608347	160834.6	21
0	1611201	161120	95
0	1614367	161436.6	6
0	1614383	161438.2	4
0	1616321	161632	136
0	1617877	161787.6	221
0	1618015	161801.4	16
0	1618393	161839.2	71
0	1619735	161973.4	21
0	1620647	162064.6	32
0	1622957	162295.6	167
0	1624625	162462.4	12
0	1624693	162469.2	46
0	1625223	162522.2	346
0	1626159	162615.8	80
0	1626209	162620.8	1
0	1628277	162827.6	148
0	1629781	162978	199
0	1631421	163142	3
0	1632319	163231.8	344
0	1634445	163444.4	35
0	1636697	163669.6	7
0	1637975	163797.4	91
0	1643373	164337.2	16
0	1649937	164993.6	62
0	1651291	165129	47
0	1652459	165245.8	134
0	1654973	165497.2	56
0	1656353	165635.2	12
0	1656637	165663.6	45
0	1656793	165679.2	19
0	1657573	165757.2	88
0	1657825	165782.4	4
0	1660087	166008.6	35
0	1661387	166138.6	137
0	1661707	166170.6	4
0	1669895	166989.4	56
0	1671621	167162	41
0	1671763	167176.2	51
0	1673241	167324	88
0	1675207	167520.6	6
0	1677821	167782	39
0	1679793	167979.2	15
0	1681045	168104.4	190
0	1681833	168183.2	300
0	1686265	168626.4	13
0	1688447	168844.6	85
0	1689149	168914.8	35
0	1689347	168934.6	4
0	1689653	168965.2	87
0	1694757	169475.6	66
0	1694937	169493.6	2
0	1696663	169666.2	4
0	1701265	170126.4	24
0	1702819	170281.8	49
0	1703435	170343.4	59
0	1704329	170432.8	150
0	1706253	170625.2	135
0	1706691	170669	6
0	1706817	170681.6	65
0	1707583	170758.2	185
0	1708913	170891.2	106
0	1709329	170932.8	61
0	1710217	171021.6	45
0	1713899	171389.8	75
0	1715285	171528.4	177
0	1719025	171902.4	2
0	1719179	171917.8	26
0	1719773	171977.2	83
0	1720515	172051.4	39
0	1720587	172058.6	26
0	1721061	172106	8
0	1722857	172285.6	123
0	1723813	172381.2	3
0	1724903	172490.2	117
0	1724927	172492.6	18
0	1725035	172503.4	39
0	1725325	172532.4	34
0	1727079	172707.8	8
0	1727307	172730.6	59
0	1727603	172760.2	162