version 3
run General-108-20230611-05:41:39-416617
attr configname General
attr datetime 20230611-05:41:39
attr datetimef 20230611-054139
attr experiment General
attr inifile omnetpp.ini
attr iterationvars $N=85
attr iterationvarsd N=85
attr iterationvarsf N=85-
attr measurement $N=85
attr network LN
attr processid 416617
attr repetition 0
attr replication #0
attr resultdir results
attr runnumber 108
attr seedset 108
itervar N 85
config network LN
config sim-time-limit 250000s
config **.tic[*].hopCount.result-recording-modes +vector
config *.numCentralNodes 85
config repeat 4

vector 0 LN.lnd[4] hopCount:vector ETV
attr interpolationmode none
attr recordingmode vector
attr source arrival
attr title "hop count"
vector 1 LN.lnd[7] hopCount:vector ETV
attr interpolationmode none
attr recordingmode vector
attr source arrival
attr title "hop count"
vector 2 LN.lnd[16] hopCount:vector ETV
attr interpolationmode none
attr recordingmode vector
attr source arrival
attr title "hop count"
vector 3 LN.lnd[6] hopCount:vector ETV
attr interpolationmode none
attr recordingmode vector
attr source arrival
attr title "hop count"
vector 4 LN.lnd[14] hopCount:vector ETV
attr interpolationmode none
attr recordingmode vector
attr source arrival
attr title "hop count"
vector 5 LN.lnd[8] hopCount:vector ETV
attr interpolationmode none
attr recordingmode vector
attr source arrival
attr title "hop count"
vector 6 LN.lnd[11] hopCount:vector ETV
attr interpolationmode none
attr recordingmode vector
attr source arrival
attr title "hop count"
vector 7 LN.lnd[3] hopCount:vector ETV
attr interpolationmode none
attr recordingmode vector
attr source arrival
attr title "hop count"
vector 8 LN.lnd[15] hopCount:vector ETV
attr interpolationmode none
attr recordingmode vector
attr source arrival
attr title "hop count"
vector 9 LN.lnd[19] hopCount:vector ETV
attr interpolationmode none
attr recordingmode vector
attr source arrival
attr title "hop count"
vector 10 LN.lnd[2] hopCount:vector ETV
attr interpolationmode none
attr recordingmode vector
attr source arrival
attr title "hop count"
vector 11 LN.lnd[18] hopCount:vector ETV
attr interpolationmode none
attr recordingmode vector
attr source arrival
attr title "hop count"
vector 12 LN.lnd[17] hopCount:vector ETV
attr interpolationmode none
attr recordingmode vector
attr source arrival
attr title "hop count"
vector 13 LN.lnd[1] hopCount:vector ETV
attr interpolationmode none
attr recordingmode vector
attr source arrival
attr title "hop count"
vector 14 LN.lnd[0] hopCount:vector ETV
attr interpolationmode none
attr recordingmode vector
attr source arrival
attr title "hop count"
vector 15 LN.lnd[13] hopCount:vector ETV
attr interpolationmode none
attr recordingmode vector
attr source arrival
attr title "hop count"
vector 16 LN.lnd[12] hopCount:vector ETV
attr interpolationmode none
attr recordingmode vector
attr source arrival
attr title "hop count"
vector 17 LN.lnd[9] hopCount:vector ETV
attr interpolationmode none
attr recordingmode vector
attr source arrival
attr title "hop count"
vector 18 LN.lnd[5] hopCount:vector ETV
attr interpolationmode none
attr recordingmode vector
attr source arrival
attr title "hop count"
vector 19 LN.lnd[10] hopCount:vector ETV
attr interpolationmode none
attr recordingmode vector
attr source arrival
attr title "hop count"
0	10	0.9	9
0	160	15.9	10
0	5006	500.5	1
0	7574	757.3	16
0	10820	1081.9	28
0	10872	1087.1	6
0	11964	1196.3	5
0	12782	1278.1	4
0	12902	1290.1	27
0	13706	1370.5	87
0	14590	1458.9	23
0	15210	1520.9	34
0	16070	1606.9	16
0	17076	1707.5	4
0	19850	1984.9	10
0	20364	2036.3	4
0	25552	2555.1	10
0	28776	2877.5	6
0	30740	3073.9	2
0	31312	3131.1	2
0	31434	3143.3	4
0	31876	3187.5	25
0	35596	3559.5	8
0	36232	3623.1	25
0	36746	3674.5	16
0	37258	3725.7	1
0	37342	3734.1	18
0	39820	3981.9	8
0	40054	4005.3	30
0	44036	4403.5	91
0	44190	4418.9	10
0	45496	4549.5	26
0	45514	4551.3	4
0	45706	4570.5	2
0	46134	4613.3	9
0	46632	4663.1	38
0	47314	4731.3	5
0	48506	4850.5	13
0	52986	5298.5	5
0	53162	5316.1	69
0	53756	5375.5	46
0	54786	5478.5	1
0	55054	5505.3	2
0	55422	5542.1	1
0	56448	5644.7	59
0	60620	6061.9	40
0	61426	6142.5	2
0	63094	6309.3	30
0	63312	6331.1	10
0	63512	6351.1	1
0	63868	6386.7	18
0	67374	6737.3	1
0	67632	6763.1	14
0	67666	6766.5	28
0	67772	6777.1	81
0	69570	6956.9	61
0	71246	7124.5	11
0	76978	7697.7	29
0	78530	7852.9	12
0	79134	7913.3	8
0	79138	7913.7	1
0	80614	8061.3	3
0	81028	8102.7	1
0	81220	8121.9	24
0	82856	8285.5	9
0	84000	8399.9	68
0	84310	8430.9	1
0	85048	8504.7	73
0	85772	8577.1	54
0	89076	8907.5	2
0	91156	9115.5	8
0	91872	9187.1	1
0	91904	9190.3	2
0	93258	9325.7	56
0	94356	9435.5	2
0	94606	9460.5	9
0	95550	9554.9	5
0	95842	9584.1	2
0	97092	9709.1	10
0	99842	9984.1	1
0	101148	10114.7	47
0	103496	10349.5	12
0	103530	10352.9	1
0	104652	10465.1	5
0	106992	10699.1	33
0	107074	10707.3	22
0	114380	11437.9	7
0	114808	11480.7	5
0	114900	11489.9	27
0	116170	11616.9	7
0	118322	11832.1	37
0	119246	11924.5	17
0	120318	12031.7	8
0	121814	12181.3	1
0	122250	12224.9	3
0	125226	12522.5	8
0	127900	12789.9	6
0	128452	12845.1	33
0	130202	13020.1	23
0	130420	13041.9	26
0	130736	13073.5	7
0	131670	13166.9	4
0	133848	13384.7	25
0	138030	13802.9	2
0	138074	13807.3	9
0	141170	14116.9	2
0	142772	14277.1	17
0	145074	14507.3	10
0	145852	14585.1	10
0	147616	14761.5	2
0	147726	14772.5	2
0	149168	14916.7	19
0	150736	15073.5	20
0	151726	15172.5	14
0	152152	15215.1	9
0	152340	15233.9	38
0	152500	15249.9	16
0	153758	15375.7	1
0	153876	15387.5	44
0	153894	15389.3	10
0	159476	15947.5	6
0	159572	15957.1	11
0	159796	15979.5	1
0	162664	16266.3	4
0	163078	16307.7	13
0	163454	16345.3	4
0	163456	16345.5	1
0	163530	16352.9	4
0	165314	16531.3	36
0	168882	16888.1	17
0	169602	16960.1	31
0	171054	17105.3	30
0	171766	17176.5	1
0	173154	17315.3	1
0	175454	17545.3	1
0	176304	17630.3	27
0	178888	17888.7	29
0	179832	17983.1	21
0	180072	18007.1	1
0	180832	18083.1	13
0	181398	18139.7	1
0	183706	18370.5	1
0	184760	18475.9	1
0	185124	18512.3	2
0	186846	18684.5	14
0	191926	19192.5	2
0	191960	19195.9	21
0	193950	19394.9	3
0	194138	19413.7	3
0	194426	19442.5	43
0	195504	19550.3	11
0	201546	20154.5	250
0	202276	20227.5	49
0	203184	20318.3	1
0	203330	20332.9	2
0	204068	20406.7	18
0	204104	20410.3	28
0	207564	20756.3	20
0	209098	20909.7	2
0	210354	21035.3	20
0	212426	21242.5	47
0	213906	21390.5	28
0	216396	21639.5	1
0	219604	21960.3	1
0	220650	22064.9	21
0	220912	22091.1	3
0	221058	22105.7	1
0	224930	22492.9	6
0	225872	22587.1	4
0	226140	22613.9	12
0	229724	22972.3	4
0	231800	23179.9	18
0	232498	23249.7	73
0	233176	23317.5	37
0	233548	23354.7	2
0	234986	23498.5	9
0	236598	23659.7	8
0	237604	23760.3	10
0	239448	23944.7	4
0	239968	23996.7	30
0	240892	24089.1	4
0	241786	24178.5	14
0	242054	24205.3	19
0	242402	24240.1	8
0	243810	24380.9	9
0	243838	24383.7	9
0	244530	24452.9	3
0	247244	24724.3	40
0	247532	24753.1	2
0	249086	24908.5	1
0	252050	25204.9	1
0	253438	25343.7	4
0	256050	25604.9	55
0	256308	25630.7	42
0	256400	25639.9	6
0	256796	25679.5	55
0	258742	25874.1	1
0	258830	25882.9	16
0	260760	26075.9	1
0	261622	26162.1	27
0	262326	26232.5	76
0	262498	26249.7	53
0	264014	26401.3	145
0	267266	26726.5	1
0	268080	26807.9	141
0	268714	26871.3	8
0	270800	27079.9	4
0	271060	27105.9	13
0	271744	27174.3	3
0	272220	27221.9	25
0	273354	27335.3	14
0	275114	27511.3	17
0	275868	27586.7	43
0	279176	27917.5	2
0	279602	27960.1	21
0	282700	28269.9	3
0	283724	28372.3	52
0	284422	28442.1	6
0	289088	28908.7	15
0	289814	28981.3	4
0	291136	29113.5	8
0	294684	29468.3	8
0	295732	29573.1	24
0	295866	29586.5	1
0	296920	29691.9	19
0	297708	29770.7	4
0	297742	29774.1	27
0	299078	29907.7	2
0	300002	30000.1	22
0	300544	30054.3	1
0	300752	30075.1	20
0	303438	30343.7	1
0	303494	30349.3	4
0	303906	30390.5	40
0	306132	30613.1	14
0	306948	30694.7	1
0	307264	30726.3	9
0	307584	30758.3	10
0	307732	30773.1	2
0	309768	30976.7	83
0	310822	31082.1	20
0	311128	31112.7	11
0	311764	31176.3	1
0	315026	31502.5	17
0	316506	31650.5	40
0	316842	31684.1	48
0	319256	31925.5	14
0	319380	31937.9	6
0	323190	32318.9	7
0	326394	32639.3	4
0	327592	32759.1	2
0	328350	32834.9	17
0	328530	32852.9	9
0	329282	32928.1	19
0	332080	33207.9	102
0	333154	33315.3	41
0	334716	33471.5	1
0	335740	33573.9	47
0	335890	33588.9	8
0	335904	33590.3	5
0	337254	33725.3	58
0	340344	34034.3	8
0	341436	34143.5	20
0	342964	34296.3	1
0	343050	34304.9	11
0	344440	34443.9	10
0	345374	34537.3	20
0	345580	34557.9	23
0	348438	34843.7	1
0	348574	34857.3	5
0	349858	34985.7	7
0	353124	35312.3	10
0	353172	35317.1	21
0	353284	35328.3	1
0	354630	35462.9	18
0	354880	35487.9	7
0	356040	35603.9	3
0	356974	35697.3	22
0	358316	35831.5	8
0	358694	35869.3	68
0	359398	35939.7	28
0	360172	36017.1	18
0	361382	36138.1	23
0	363466	36346.5	6
0	364342	36434.1	1
0	365544	36554.3	6
0	367234	36723.3	4
0	369330	36932.9	1
0	369624	36962.3	10
0	372012	37201.1	18
0	372370	37236.9	30
0	372620	37261.9	2
0	374372	37437.1	16
0	374382	37438.1	6
0	376454	37645.3	15
0	376686	37668.5	121
0	378242	37824.1	2
0	378738	37873.7	9
0	379656	37965.5	23
0	380814	38081.3	41
0	380984	38098.3	1
0	381254	38125.3	34
0	383688	38368.7	41
0	385228	38522.7	39
0	386316	38631.5	3
0	386800	38679.9	1
0	387030	38702.9	37
0	387312	38731.1	9
0	388628	38862.7	12
0	388636	38863.5	1
0	388752	38875.1	2
0	389328	38932.7	2
0	390778	39077.7	1
0	391006	39100.5	33
0	392832	39283.1	30
0	392908	39290.7	14
0	393500	39349.9	27
0	397136	39713.5	33
0	397722	39772.1	8
0	399470	39946.9	1
0	399674	39967.3	24
0	400546	40054.5	2
0	401044	40104.3	26
0	401174	40117.3	32
0	401388	40138.7	47
0	401860	40185.9	42
0	405038	40503.7	9
0	406390	40638.9	28
0	406714	40671.3	35
0	408556	40855.5	17
0	408634	40863.3	10
0	412844	41284.3	4
0	413110	41310.9	28
0	414928	41492.7	27
0	415380	41537.9	19
0	416758	41675.7	66
0	420348	42034.7	1
0	426058	42605.7	89
0	426448	42644.7	1
0	427138	42713.7	23
0	429518	42951.7	16
0	433030	43302.9	48
0	433588	43358.7	37
0	434954	43495.3	23
0	434966	43496.5	4
0	436844	43684.3	14
0	438680	43867.9	4
0	441324	44132.3	13
0	442524	44252.3	44
0	443262	44326.1	16
0	444124	44412.3	22
0	445620	44561.9	4
0	446908	44690.7	6
0	447174	44717.3	17
0	448826	44882.5	1
0	449498	44949.7	3
0	450100	45009.9	6
0	450690	45068.9	1
0	451688	45168.7	16
0	451856	45185.5	37
0	452732	45273.1	38
0	453978	45397.7	1
0	454096	45409.5	1
0	457742	45774.1	18
0	458780	45877.9	16
0	459344	45934.3	1
0	459518	45951.7	13
0	459756	45975.5	5
0	460490	46048.9	53
0	463220	46321.9	49
0	468146	46814.5	1
0	469770	46976.9	1
0	472158	47215.7	1
0	480922	48092.1	8
0	482140	48213.9	6
0	482556	48255.5	1
0	483030	48302.9	3
0	485070	48506.9	28
0	485618	48561.7	1
0	486192	48619.1	2
0	487774	48777.3	4
0	488636	48863.5	8
0	491670	49166.9	67
0	491732	49173.1	8
0	492070	49206.9	26
0	492114	49211.3	21
0	494198	49419.7	1
0	496578	49657.7	10
0	497918	49791.7	1
0	498474	49847.3	6
0	499854	49985.3	22
0	501924	50192.3	32
0	505328	50532.7	1
0	509662	50966.1	15
0	510602	51060.1	5
0	510798	51079.7	6
0	511004	51100.3	48
0	511044	51104.3	2
0	511888	51188.7	78
0	512626	51262.5	24
0	515564	51556.3	34
0	518004	51800.3	1
0	518382	51838.1	33
0	520014	52001.3	24
0	521474	52147.3	12
0	522744	52274.3	18
0	526844	52684.3	5
0	526884	52688.3	20
0	528638	52863.7	13
0	529862	52986.1	43
0	531306	53130.5	3
0	531634	53163.3	49
0	533026	53302.5	18
0	534012	53401.1	82
0	539064	53906.3	2
0	540222	54022.1	54
0	540320	54031.9	28
0	540644	54064.3	9
0	541888	54188.7	7
0	542072	54207.1	5
0	542978	54297.7	28
0	545098	54509.7	14
0	545306	54530.5	1
0	547960	54795.9	16
0	549292	54929.1	60
0	549582	54958.1	3
0	550754	55075.3	41
0	550828	55082.7	4
0	554442	55444.1	16
0	560132	56013.1	8
0	560898	56089.7	51
0	561136	56113.5	7
0	565570	56556.9	15
0	567090	56708.9	32
0	568784	56878.3	11
0	569550	56954.9	39
0	569626	56962.5	3
0	570254	57025.3	6
0	572586	57258.5	34
0	572662	57266.1	19
0	574344	57434.3	3
0	577164	57716.3	7
0	580334	58033.3	7
0	580648	58064.7	24
0	584098	58409.7	1
0	584198	58419.7	5
0	585330	58532.9	1
0	585352	58535.1	3
0	586950	58694.9	36
0	587326	58732.5	8
0	591018	59101.7	10
0	591086	59108.5	19
0	591846	59184.5	8
0	592130	59212.9	27
0	592420	59241.9	8
0	592562	59256.1	3
0	595256	59525.5	16
0	595894	59589.3	13
0	597902	59790.1	24
0	606758	60675.7	1
0	606788	60678.7	2
0	607892	60789.1	16
0	609784	60978.3	6
0	611500	61149.9	64
0	612174	61217.3	21
0	612532	61253.1	63
0	614002	61400.1	34
0	615940	61593.9	10
0	617956	61795.5	63
0	617990	61798.9	1
0	618940	61893.9	1
0	619340	61933.9	15
0	619884	61988.3	16
0	621224	62122.3	25
0	623554	62355.3	3
0	623758	62375.7	63
0	623936	62393.5	1
0	625150	62514.9	20
0	626062	62606.1	9
0	627900	62789.9	16
0	628770	62876.9	14
0	629038	62903.7	25
0	630018	63001.7	30
0	630840	63083.9	8
0	632150	63214.9	25
0	633268	63326.7	17
0	634852	63485.1	34
0	635834	63583.3	24
0	635934	63593.3	1
0	637434	63743.3	6
0	638030	63802.9	1
0	638076	63807.5	1
0	639226	63922.5	10
0	640830	64082.9	1
0	642502	64250.1	4
0	643958	64395.7	13
0	650556	65055.5	4
0	651234	65123.3	1
0	654024	65402.3	9
0	655518	65551.7	1
0	657930	65792.9	6
0	661442	66144.1	33
0	662004	66200.3	4
0	662658	66265.7	5
0	666950	66694.9	35
0	668546	66854.5	37
0	669176	66917.5	2
0	669924	66992.3	6
0	671574	67157.3	22
0	672194	67219.3	4
0	673170	67316.9	4
0	674108	67410.7	1
0	674270	67426.9	20
0	675164	67516.3	22
0	675200	67519.9	16
0	675700	67569.9	13
0	677052	67705.1	14
0	680854	68085.3	7
0	684220	68421.9	1
0	684846	68484.5	14
0	686202	68620.1	9
0	687614	68761.3	4
0	689130	68912.9	14
0	690614	69061.3	5
0	690848	69084.7	8
0	695526	69552.5	1
0	700136	70013.5	56
0	700822	70082.1	11
0	701514	70151.3	48
0	702526	70252.5	11
0	703706	70370.5	83
0	704328	70432.7	14
0	704576	70457.5	6
0	704972	70497.1	1
0	707168	70716.7	66
0	707720	70771.9	18
0	711028	71102.7	6
0	711030	71102.9	1
0	711866	71186.5	2
0	712054	71205.3	3
0	712068	71206.7	10
0	713028	71302.7	8
0	714354	71435.3	25
0	715558	71555.7	73
0	716340	71633.9	16
0	717224	71722.3	4
0	718696	71869.5	64
0	719172	71917.1	19
0	725642	72564.1	2
0	725948	72594.7	31
0	726586	72658.5	4
0	726738	72673.7	3
0	727408	72740.7	6
0	728126	72812.5	173
0	729092	72909.1	22
0	729928	72992.7	49
0	730564	73056.3	22
0	731364	73136.3	14
0	731846	73184.5	27
0	732030	73202.9	11
0	734484	73448.3	6
0	734804	73480.3	1
0	735156	73515.5	18
0	738656	73865.5	1
0	738796	73879.5	1
0	739838	73983.7	56
0	739914	73991.3	7
0	739930	73992.9	3
0	740144	74014.3	5
0	740708	74070.7	5
0	740946	74094.5	90
0	741650	74164.9	1
0	743962	74396.1	1
0	744900	74489.9	1
0	748460	74845.9	3
0	749326	74932.5	1
0	750432	75043.1	6
0	751212	75121.1	27
0	755058	75505.7	12
0	756194	75619.3	100
0	757040	75703.9	14
0	757708	75770.7	44
0	757888	75788.7	12
0	758828	75882.7	35
0	759144	75914.3	2
0	760556	76055.5	18
0	760902	76090.1	11
0	760932	76093.1	2
0	762660	76265.9	4
0	764088	76408.7	39
0	765406	76540.5	16
0	765482	76548.1	14
0	765784	76578.3	60
0	766850	76684.9	2
0	768918	76891.7	16
0	769022	76902.1	4
0	770622	77062.1	5
0	773726	77372.5	62
0	775520	77551.9	16
0	776514	77651.3	54
0	776574	77657.3	20
0	781306	78130.5	39
0	785870	78586.9	3
0	787352	78735.1	17
0	789454	78945.3	1
0	791400	79139.9	39
0	791948	79194.7	2
0	793722	79372.1	2
0	794974	79497.3	1
0	798680	79867.9	1
0	799350	79934.9	16
0	800356	80035.5	6
0	802450	80244.9	1
0	804774	80477.3	37
0	809282	80928.1	24
0	810408	81040.7	23
0	811046	81104.5	3
0	811548	81154.7	76
0	812376	81237.5	1
0	813030	81302.9	2
0	813110	81310.9	15
0	813852	81385.1	81
0	814496	81449.5	18
0	814814	81481.3	38
0	816758	81675.7	21
0	817858	81785.7	8
0	818706	81870.5	39
0	819604	81960.3	5
0	820484	82048.3	5
0	820500	82049.9	5
0	820602	82060.1	30
0	821056	82105.5	1
0	825376	82537.5	1
0	826342	82634.1	27
0	829274	82927.3	8
0	830258	83025.7	24
0	830814	83081.3	26
0	831022	83102.1	45
0	832980	83297.9	24
0	835082	83508.1	20
0	835452	83545.1	34
0	836882	83688.1	15
0	837736	83773.5	6
0	838520	83851.9	2
0	838950	83894.9	21
0	839180	83917.9	1
0	842532	84253.1	50
0	843370	84336.9	17
0	845792	84579.1	1
0	846262	84626.1	12
0	846364	84636.3	43
0	847018	84701.7	80
0	849018	84901.7	21
0	851064	85106.3	1
0	852140	85213.9	6
0	853548	85354.7	22
0	857602	85760.1	34
0	859586	85958.5	1
0	861056	86105.5	32
0	861604	86160.3	16
0	862110	86210.9	30
0	864038	86403.7	6
0	864140	86413.9	36
0	864386	86438.5	4
0	868616	86861.5	1
0	869200	86919.9	1
0	869230	86922.9	9
0	873082	87308.1	2
0	874674	87467.3	12
0	875362	87536.1	25
0	880976	88097.5	50
0	881158	88115.7	77
0	882030	88202.9	42
0	882220	88221.9	4
0	883008	88300.7	12
0	883904	88390.3	8
0	886750	88674.9	40
0	888058	88805.7	68
0	890144	89014.3	19
0	891796	89179.5	3
0	892688	89268.7	1
0	893330	89332.9	1
0	894596	89459.5	24
0	896714	89671.3	1
0	897310	89730.9	3
0	897986	89798.5	1
0	901068	90106.7	9
0	902006	90200.5	6
0	902476	90247.5	4
0	903748	90374.7	52
0	903938	90393.7	81
0	910664	91066.3	45
0	912770	91276.9	11
0	914326	91432.5	8
0	915394	91539.3	4
0	916928	91692.7	1
0	921214	92121.3	132
0	921656	92165.5	7
0	922966	92296.5	32
0	923908	92390.7	32
0	929146	92914.5	18
0	929844	92984.3	29
0	930176	93017.5	6
0	931246	93124.5	6
0	932188	93218.7	2
0	932708	93270.7	26
0	935206	93520.5	6
0	935420	93541.9	1
0	936022	93602.1	1
0	936360	93635.9	2
0	937752	93775.1	1
0	939176	93917.5	15
0	940278	94027.7	72
0	942812	94281.1	1
0	944390	94438.9	1
0	945096	94509.5	5
0	946642	94664.1	10
0	948884	94888.3	12
0	949608	94960.7	2
0	951920	95191.9	6
0	954514	95451.3	29
0	958810	95880.9	9
0	959996	95999.5	2
0	961134	96113.3	1
0	962038	96203.7	1
0	962226	96222.5	2
0	964474	96447.3	4
0	964616	96461.5	38
0	965054	96505.3	9
0	966616	96661.5	18
0	969204	96920.3	21
0	976162	97616.1	13
0	977098	97709.7	1
0	977490	97748.9	5
0	979462	97946.1	15
0	980912	98091.1	30
0	982304	98230.3	3
0	983726	98372.5	6
0	985402	98540.1	2
0	985408	98540.7	1
0	988438	98843.7	2
0	989084	98908.3	12
0	995128	99512.7	6
0	999784	99978.3	1
0	1002406	100240.5	18
0	1003226	100322.5	23
0	1003994	100399.3	34
0	1004886	100488.5	4
0	1007568	100756.7	2
0	1007784	100778.3	9
0	1008870	100886.9	2
0	1010696	101069.5	1
0	1011170	101116.9	4
0	1015374	101537.3	43
0	1018526	101852.5	15
0	1018818	101881.7	1
0	1019106	101910.5	13
0	1019450	101944.9	1
0	1021812	102181.1	46
0	1023710	102370.9	7
0	1023964	102396.3	30
0	1025162	102516.1	15
0	1027324	102732.3	2
0	1032906	103290.5	32
0	1033100	103309.9	53
0	1034052	103405.1	1
0	1034100	103409.9	3
0	1034958	103495.7	4
0	1036024	103602.3	13
0	1039978	103997.7	6
0	1042070	104206.9	3
0	1042834	104283.3	1
0	1044976	104497.5	18
0	1046116	104611.5	4
0	1046304	104630.3	1
0	1047746	104774.5	1
0	1047788	104778.7	10
0	1048606	104860.5	2
0	1048628	104862.7	14
0	1052906	105290.5	184
0	1054006	105400.5	3
0	1054214	105421.3	41
0	1054346	105434.5	2
0	1054814	105481.3	7
0	1057356	105735.5	37
0	1058288	105828.7	2
0	1058966	105896.5	12
0	1061604	106160.3	8
0	1063646	106364.5	1
0	1065746	106574.5	1
0	1065800	106579.9	31
0	1066986	106698.5	14
0	1069022	106902.1	22
0	1070414	107041.3	15
0	1071760	107175.9	4
0	1071976	107197.5	20
0	1072962	107296.1	56
0	1074450	107444.9	10
0	1074532	107453.1	10
0	1076328	107632.7	8
0	1077494	107749.3	37
0	1077622	107762.1	19
0	1078364	107836.3	4
0	1079388	107938.7	3
0	1079452	107945.1	20
0	1079604	107960.3	4
0	1080964	108096.3	17
0	1081998	108199.7	40
0	1082946	108294.5	12
0	1084552	108455.1	16
0	1084686	108468.5	41
0	1085044	108504.3	31
0	1087036	108703.5	2
0	1087452	108745.1	8
0	1087460	108745.9	4
0	1088522	108852.1	1
0	1091344	109134.3	8
0	1091582	109158.1	6
0	1094264	109426.3	8
0	1096884	109688.3	6
0	1097842	109784.1	6
0	1098784	109878.3	10
0	1100016	110001.5	25
0	1101034	110103.3	26
0	1101126	110112.5	21
0	1102906	110290.5	48
0	1103214	110321.3	22
0	1103598	110359.7	41
0	1103790	110378.9	15
0	1105684	110568.3	7
0	1108346	110834.5	23
0	1108478	110847.7	19
0	1110000	110999.9	4
0	1110984	111098.3	1
0	1113650	111364.9	6
0	1114122	111412.1	2
0	1115158	111515.7	4
0	1117522	111752.1	49
0	1119508	111950.7	31
0	1119848	111984.7	41
0	1121880	112187.9	1
0	1122578	112257.7	6
0	1123476	112347.5	2
0	1123552	112355.1	1
0	1123764	112376.3	61
0	1123962	112396.1	22
0	1125726	112572.5	62
0	1127698	112769.7	1
0	1128166	112816.5	5
0	1129056	112905.5	5
0	1129728	112972.7	9
0	1131118	113111.7	16
0	1131990	113198.9	20
0	1132084	113208.3	25
0	1133472	113347.1	1
0	1134088	113408.7	31
0	1136616	113661.5	76
0	1138090	113808.9	1
0	1140394	114039.3	10
0	1141224	114122.3	4
0	1142802	114280.1	47
0	1143212	114321.1	63
0	1143978	114397.7	9
0	1144052	114405.1	22
0	1145698	114569.7	3
0	1146066	114606.5	44
0	1147506	114750.5	19
0	1147600	114759.9	12
0	1148066	114806.5	2
0	1150056	115005.5	5
0	1151700	115169.9	33
0	1153132	115313.1	1
0	1154126	115412.5	7
0	1156126	115612.5	1
0	1156260	115625.9	1
0	1159024	115902.3	4
0	1159226	115922.5	1
0	1159742	115974.1	18
0	1160062	116006.1	49
0	1160408	116040.7	15
0	1162078	116207.7	55
0	1162340	116233.9	14
0	1163934	116393.3	4
0	1164566	116456.5	4
0	1164954	116495.3	41
0	1166548	116654.7	10
0	1166714	116671.3	29
0	1168892	116889.1	6
0	1170430	117042.9	79
0	1172808	117280.7	10
0	1174818	117481.7	23
0	1176318	117631.7	1
0	1176728	117672.7	6
0	1177526	117752.5	31
0	1178512	117851.1	7
0	1181530	118152.9	11
0	1181702	118170.1	4
0	1182544	118254.3	76
0	1184794	118479.3	1
0	1188058	118805.7	2
0	1190122	119012.1	1
0	1190980	119097.9	18
0	1191968	119196.7	71
0	1194924	119492.3	11
0	1197356	119735.5	4
0	1197458	119745.7	2
0	1198120	119811.9	6
0	1198690	119868.9	5
0	1199190	119918.9	28
0	1199202	119920.1	1
0	1199448	119944.7	39
0	1200250	120024.9	65
0	1201104	120110.3	12
0	1202334	120233.3	9
0	1203270	120326.9	1
0	1205872	120587.1	17
0	1206826	120682.5	1
0	1207056	120705.5	7
0	1209934	120993.3	30
0	1212418	121241.7	10
0	1212512	121251.1	4
0	1214894	121489.3	3
0	1215028	121502.7	19
0	1215880	121587.9	9
0	1215882	121588.1	1
0	1217036	121703.5	102
0	1217546	121754.5	68
0	1221184	122118.3	40
0	1223852	122385.1	3
0	1225040	122503.9	9
0	1226192	122619.1	46
0	1227754	122775.3	30
0	1229454	122945.3	11
0	1229624	122962.3	43
0	1230430	123042.9	24
0	1233038	123303.7	12
0	1233148	123314.7	1
0	1233268	123326.7	7
0	1236074	123607.3	28
0	1238108	123810.7	3
0	1238294	123829.3	49
0	1241474	124147.3	10
0	1245672	124567.1	12
0	1250048	125004.7	1
0	1253136	125313.5	8
0	1254454	125445.3	74
0	1255104	125510.3	5
0	1259212	125921.1	7
0	1259812	125981.1	6
0	1260364	126036.3	20
0	1260628	126062.7	9
0	1261584	126158.3	24
0	1262294	126229.3	3
0	1263372	126337.1	5
0	1266338	126633.7	11
0	1269070	126906.9	61
0	1269140	126913.9	1
0	1273736	127373.5	5
0	1276572	127657.1	3
0	1277228	127722.7	1
0	1280626	128062.5	4
0	1281750	128174.9	1
0	1284598	128459.7	117
0	1285766	128576.5	16
0	1286744	128674.3	36
0	1288760	128875.9	48
0	1289192	128919.1	2
0	1290864	129086.3	21
0	1292530	129252.9	1
0	1293662	129366.1	1
0	1296102	129610.1	1
0	1296766	129676.5	2
0	1297512	129751.1	44
0	1297952	129795.1	9
0	1298038	129803.7	38
0	1299330	129932.9	15
0	1302622	130262.1	2
0	1303714	130371.3	3
0	1303996	130399.5	7
0	1304274	130427.3	110
0	1305440	130543.9	109
0	1306334	130633.3	1
0	1306742	130674.1	6
0	1307368	130736.7	14
0	1308204	130820.3	49
0	1311152	131115.1	10
0	1311964	131196.3	8
0	1312978	131297.7	35
0	1314134	131413.3	6
0	1314156	131415.5	1
0	1314286	131428.5	63
0	1314630	131462.9	26
0	1316960	131695.9	41
0	1321648	132164.7	49
0	1322220	132221.9	18
0	1323056	132305.5	2
0	1325382	132538.1	38
0	1327700	132769.9	8
0	1328718	132871.7	1
0	1329374	132937.3	12
0	1331282	133128.1	37
0	1331844	133184.3	1
0	1333050	133304.9	11
0	1333438	133343.7	68
0	1336380	133637.9	19
0	1336608	133660.7	8
0	1337192	133719.1	4
0	1337718	133771.7	2
0	1337890	133788.9	14
0	1342044	134204.3	3
0	1347114	134711.3	7
0	1351070	135106.9	3
0	1351372	135137.1	12
0	1352764	135276.3	9
0	1353116	135311.5	7
0	1353354	135335.3	1
0	1353482	135348.1	11
0	1354176	135417.5	4
0	1354604	135460.3	5
0	1354622	135462.1	9
0	1354846	135484.5	3
0	1355468	135546.7	4
0	1356212	135621.1	1
0	1358522	135852.1	17
0	1359228	135922.7	16
0	1360132	136013.1	6
0	1361080	136107.9	41
0	1367142	136714.1	27
0	1367168	136716.7	1
0	1368338	136833.7	3
0	1370226	137022.5	17
0	1370566	137056.5	69
0	1370978	137097.7	78
0	1371262	137126.1	32
0	1372406	137240.5	12
0	1372940	137293.9	88
0	1373286	137328.5	21
0	1375300	137529.9	16
0	1375884	137588.3	21
0	1377540	137753.9	32
0	1379930	137992.9	27
0	1380816	138081.5	30
0	1381384	138138.3	1
0	1381480	138147.9	10
0	1381888	138188.7	2
0	1382344	138234.3	1
0	1383392	138339.1	19
0	1385876	138587.5	32
0	1387398	138739.7	51
0	1388640	138863.9	4
0	1394714	139471.3	1
0	1396544	139654.3	11
0	1398430	139842.9	35
0	1398864	139886.3	4
0	1401064	140106.3	3
0	1402692	140269.1	80
0	1404154	140415.3	4
0	1405680	140567.9	1
0	1406046	140604.5	4
0	1407388	140738.7	3
0	1408688	140868.7	4
0	1408934	140893.3	24
0	1409860	140985.9	16
0	1410294	141029.3	9
0	1410308	141030.7	11
0	1410388	141038.7	17
0	1411268	141126.7	1
0	1411808	141180.7	59
0	1412414	141241.3	32
0	1414610	141460.9	3
0	1416166	141616.5	8
0	1416496	141649.5	5
0	1416744	141674.3	15
0	1417040	141703.9	12
0	1417298	141729.7	23
0	1417420	141741.9	18
0	1419610	141960.9	8
0	1419882	141988.1	47
0	1423064	142306.3	3
0	1423428	142342.7	43
0	1424430	142442.9	28
0	1425522	142552.1	36
0	1428330	142832.9	11
0	1428334	142833.3	1
0	1431482	143148.1	22
0	1433860	143385.9	12
0	1434096	143409.5	5
0	1434654	143465.3	27
0	1434742	143474.1	22
0	1437958	143795.7	29
0	1439106	143910.5	4
0	1439312	143931.1	30
0	1440268	144026.7	3
0	1446132	144613.1	20
0	1449820	144981.9	4
0	1452370	145236.9	3
0	1453900	145389.9	24
0	1453940	145393.9	1
0	1454296	145429.5	14
0	1455282	145528.1	4
0	1455448	145544.7	47
0	1461152	146115.1	1
0	1462676	146267.5	20
0	1465772	146577.1	10
0	1468474	146847.3	1
0	1469392	146939.1	5
0	1470260	147025.9	2
0	1470704	147070.3	22
0	1471342	147134.1	3
0	1471578	147157.7	26
0	1472388	147238.7	41
0	1475536	147553.5	5
0	1479878	147987.7	16
0	1480988	148098.7	70
0	1481060	148105.9	69
0	1481146	148114.5	17
0	1481594	148159.3	14
0	1481608	148160.7	1
0	1482246	148224.5	16
0	1482428	148242.7	60
0	1483592	148359.1	35
0	1483832	148383.1	48
0	1484776	148477.5	6
0	1485074	148507.3	3
0	1485552	148555.1	19
0	1486816	148681.5	8
0	1489908	148990.7	7
0	1490030	149002.9	5
0	1492644	149264.3	18
0	1494050	149404.9	11
0	1494630	149462.9	1
0	1495424	149542.3	12
0	1502224	150222.3	14
0	1502356	150235.5	22
0	1504124	150412.3	6
0	1504290	150428.9	25
0	1506038	150603.7	7
0	1506736	150673.5	8
0	1506770	150676.9	5
0	1506834	150683.3	2
0	1507476	150747.5	7
0	1507606	150760.5	57
0	1507800	150779.9	23
0	1508264	150826.3	20
0	1508456	150845.5	4
0	1510322	151032.1	3
0	1510852	151085.1	3
0	1511178	151117.7	10
0	1512496	151249.5	18
0	1512516	151251.5	1
0	1513434	151343.3	19
0	1513490	151348.9	46
0	1517824	151782.3	35
0	1518456	151845.5	15
0	1521214	152121.3	6
0	1521392	152139.1	39
0	1522222	152222.1	5
0	1523950	152394.9	4
0	1525520	152551.9	5
0	1526146	152614.5	38
0	1527182	152718.1	14
0	1527884	152788.3	11
0	1529018	152901.7	14
0	1529648	152964.7	2
0	1530786	153078.5	24
0	1531314	153131.3	1
0	1533644	153364.3	18
0	1535336	153533.5	29
0	1536492	153649.1	7
0	1538026	153802.5	17
0	1539388	153938.7	21
0	1539796	153979.5	70
0	1547446	154744.5	17
0	1549014	154901.3	22
0	1550052	155005.1	55
0	1550554	155055.3	5
0	1551760	155175.9	1
0	1553218	155321.7	3
0	1553596	155359.5	30
0	1554958	155495.7	1
0	1555128	155512.7	61
0	1555636	155563.5	23
0	1557746	155774.5	74
0	1558182	155818.1	14
0	1558552	155855.1	25
0	1558696	155869.5	23
0	1558838	155883.7	15
0	1559474	155947.3	5
0	1561614	156161.3	3
0	1563832	156383.1	2
0	1563956	156395.5	41
0	1564772	156477.1	1
0	1565122	156512.1	36
0	1565174	156517.3	42
0	1565728	156572.7	1
0	1566938	156693.7	6
0	1567348	156734.7	2
0	1567504	156750.3	3
0	1567578	156757.7	5
0	1568266	156826.5	4
0	1568536	156853.5	10
0	1569108	156910.7	8
0	1569178	156917.7	55
0	1569236	156923.5	19
0	1569254	156925.3	11
0	1571476	157147.5	3
0	1571958	157195.7	28
0	1573706	157370.5	25
0	1574818	157481.7	10
0	1576588	157658.7	8
0	1579500	157949.9	63
0	1579708	157970.7	39
0	1579826	157982.5	6
0	1580520	158051.9	20
0	1581464	158146.3	7
0	1587214	158721.3	17
0	1588618	158861.7	4
0	1590468	159046.7	8
0	1591674	159167.3	18
0	1592010	159200.9	16
0	1592382	159238.1	4
0	1592804	159280.3	1
0	1592988	159298.7	1
0	1597604	159760.3	13
0	1600196	160019.5	1
0	1604938	160493.7	21
0	1605514	160551.3	19
0	1606550	160654.9	100
0	1606990	160698.9	57
0	1609824	160982.3	1
0	1610018	161001.7	26
0	1610336	161033.5	5
0	1610842	161084.1	2
0	1612688	161268.7	25
0	1612844	161284.3	2
0	1613230	161322.9	10
0	1613764	161376.3	23
0	1614556	161455.5	45
0	1617674	161767.3	1
0	1621444	162144.3	1
0	1622300	162229.9	24
0	1624594	162459.3	17
0	1624890	162488.9	45
0	1626894	162689.3	31
0	1627288	162728.7	27
0	1630672	163067.1	5
0	1631630	163162.9	1
0	1632648	163264.7	7
0	1635600	163559.9	12
0	1636842	163684.1	11
0	1639648	163964.7	8
0	1640386	164038.5	8
0	1641234	164123.3	16
0	1642816	164281.5	3
0	1645032	164503.1	7
0	1645058	164505.7	12
0	1645644	164564.3	3
0	1647048	164704.7	14
0	1651124	165112.3	1
0	1651928	165192.7	14
0	1652016	165201.5	1
0	1653176	165317.5	13
0	1653450	165344.9	5
0	1654614	165461.3	38
0	1655570	165556.9	1
0	1658976	165897.5	1
0	1662412	166241.1	45
0	1662546	166254.5	14
0	1663268	166326.7	1
0	1664294	166429.3	7
0	1664730	166472.9	38
0	1665852	166585.1	6
0	1667976	166797.5	1
0	1669860	166985.9	49
0	1670814	167081.3	8
0	1671816	167181.5	8
0	1672204	167220.3	1
0	1674040	167403.9	1
0	1674458	167445.7	8
0	1675538	167553.7	13
0	1676432	167643.1	3
0	1679552	167955.1	12
0	1679624	167962.3	3
0	1683524	168352.3	2
0	1684608	168460.7	6
0	1685076	168507.5	23
0	1686552	168655.1	1
0	1687506	168750.5	3
0	1687652	168765.1	85
0	1687750	168774.9	70
0	1689206	168920.5	30
0	1689512	168951.1	68
0	1693676	169367.5	4
0	1696560	169655.9	22
0	1696810	169680.9	5
0	1697164	169716.3	2
0	1697220	169721.9	7
0	1698076	169807.5	2
0	1699730	169972.9	32
0	1700440	170043.9	14
0	1703566	170356.5	1
0	1703804	170380.3	2
0	1708000	170799.9	1
0	1708348	170834.7	2
0	1710612	171061.1	75
0	1710964	171096.3	8
0	1711672	171167.1	4
0	1712442	171244.1	41
0	1713794	171379.3	11
0	1714068	171406.7	40
0	1714472	171447.1	45
0	1715430	171542.9	32
0	1716254	171625.3	1
0	1716788	171678.7	4
0	1716806	171680.5	1
0	1717144	171714.3	39