version 3
run General-0-20230611-05:47:38-420095
attr configname General
attr datetime 20230611-05:47:38
attr datetimef 20230611-054738
attr experiment General
attr inifile omnetpp.ini
attr iterationvars $N=4
attr iterationvarsd N=4
attr iterationvarsf N=4-
attr measurement $N=4
attr network LN
attr processid 420095
attr repetition 0
attr replication #0
attr resultdir results
attr runnumber 0
attr seedset 0
itervar N 4
config network LN
config sim-time-limit 250000s
config **.tic[*].hopCount.result-recording-modes +vector
config *.numCentralNodes 4
config repeat 4

vector 0 LN.lnd[13] hopCount:vector ETV
attr interpolationmode none
attr recordingmode vector
attr source arrival
attr title "hop count"
vector 1 LN.lnd[3] hopCount:vector ETV
attr interpolationmode none
attr recordingmode vector
attr source arrival
attr title "hop count"
vector 2 LN.lnd[9] hopCount:vector ETV
attr interpolationmode none
attr recordingmode vector
attr source arrival
attr title "hop count"
vector 3 LN.lnd[4] hopCount:vector ETV
attr interpolationmode none
attr recordingmode vector
attr source arrival
attr title "hop count"
vector 4 LN.lnd[8] hopCount:vector ETV
attr interpolationmode none
attr recordingmode vector
attr source arrival
attr title "hop count"
vector 5 LN.lnd[17] hopCount:vector ETV
attr interpolationmode none
attr recordingmode vector
attr source arrival
attr title "hop count"
vector 6 LN.lnd[15] hopCount:vector ETV
attr interpolationmode none
attr recordingmode vector
attr source arrival
attr title "hop count"
vector 7 LN.lnd[14] hopCount:vector ETV
attr interpolationmode none
attr recordingmode vector
attr source arrival
attr title "hop count"
vector 8 LN.lnd[12] hopCount:vector ETV
attr interpolationmode none
attr recordingmode vector
attr source arrival
attr title "hop count"
vector 9 LN.lnd[11] hopCount:vector ETV
attr interpolationmode none
attr recordingmode vector
attr source arrival
attr title "hop count"
vector 10 LN.lnd[5] hopCount:vector ETV
attr interpolationmode none
attr recordingmode vector
attr source arrival
attr title "hop count"
vector 11 LN.lnd[6] hopCount:vector ETV
attr interpolationmode none
attr recordingmode vector
attr source arrival
attr title "hop count"
vector 12 LN.lnd[7] hopCount:vector ETV
attr interpolationmode none
attr recordingmode vector
attr source arrival
attr title "hop count"
vector 13 LN.lnd[18] hopCount:vector ETV
attr interpolationmode none
attr recordingmode vector
attr source arrival
attr title "hop count"
vector 14 LN.lnd[0] hopCount:vector ETV
attr interpolationmode none
attr recordingmode vector
attr source arrival
attr title "hop count"
vector 15 LN.lnd[16] hopCount:vector ETV
attr interpolationmode none
attr recordingmode vector
attr source arrival
attr title "hop count"
vector 16 LN.lnd[1] hopCount:vector ETV
attr interpolationmode none
attr recordingmode vector
attr source arrival
attr title "hop count"
vector 17 LN.lnd[19] hopCount:vector ETV
attr interpolationmode none
attr recordingmode vector
attr source arrival
attr title "hop count"
vector 18 LN.lnd[10] hopCount:vector ETV
attr interpolationmode none
attr recordingmode vector
attr source arrival
attr title "hop count"
vector 19 LN.lnd[2] hopCount:vector ETV
attr interpolationmode none
attr recordingmode vector
attr source arrival
attr title "hop count"
0	276	27.5	275
0	1518	151.7	32
0	2572	257.1	5
0	2706	270.5	2
0	3390	338.9	417
0	3916	391.5	82
0	4378	437.7	160
0	4476	447.5	47
0	4956	495.5	54
0	5378	537.7	187
0	7522	752.1	60
0	10356	1035.5	1
0	12360	1235.9	193
0	13328	1332.7	58
0	13614	1361.3	48
0	16016	1601.5	247
0	16410	1640.9	76
0	16986	1698.5	81
0	18456	1845.5	9
0	18898	1889.7	67
0	18992	1899.1	16
0	19368	1936.7	60
0	19978	1997.7	3
0	20472	2047.1	16
0	22744	2274.3	81
0	23172	2317.1	67
0	23396	2339.5	9
0	23930	2392.9	109
0	28100	2809.9	101
0	30044	3004.3	86
0	30606	3060.5	48
0	31516	3151.5	1
0	32092	3209.1	94
0	35924	3592.3	30
0	37202	3720.1	328
0	39282	3928.1	41
0	39668	3966.7	25
0	39950	3994.9	142
0	40344	4034.3	4
0	42888	4288.7	98
0	43104	4310.3	108
0	43506	4350.5	50
0	45606	4560.5	55
0	52330	5232.9	35
0	52588	5258.7	194
0	57114	5711.3	40
0	57602	5760.1	70
0	58092	5809.1	72
0	58570	5856.9	270
0	59244	5924.3	55
0	61492	6149.1	39
0	68074	6807.3	28
0	68188	6818.7	100
0	69832	6983.1	245
0	71378	7137.7	40
0	71918	7191.7	48
0	72160	7215.9	2
0	72728	7272.7	339
0	77160	7715.9	135
0	77664	7766.3	67
0	78466	7846.5	33
0	80196	8019.5	98
0	81056	8105.5	143
0	83108	8310.7	291
0	85408	8540.7	244
0	86008	8600.7	54
0	92164	9216.3	124
0	92374	9237.3	83
0	93498	9349.7	71
0	94734	9473.3	10
0	95996	9599.5	102
0	96476	9647.5	112
0	97018	9701.7	29
0	97550	9754.9	238
0	97964	9796.3	152
0	99368	9936.7	72
0	103102	10310.1	127
0	103330	10332.9	108
0	103914	10391.3	9
0	104662	10466.1	88
0	106282	10628.1	13
0	107248	10724.7	131
0	108326	10832.5	89
0	111348	11134.7	60
0	112148	11214.7	107
0	112514	11251.3	21
0	117388	11738.7	163
0	117694	11769.3	14
0	119994	11999.3	109
0	121698	12169.7	20
0	122548	12254.7	52
0	126054	12605.3	32
0	126222	12622.1	47
0	127268	12726.7	132
0	129290	12928.9	132
0	129714	12971.3	102
0	130780	13077.9	222
0	131100	13109.9	1
0	132372	13237.1	15
0	136098	13609.7	4
0	137278	13727.7	363
0	138198	13819.7	114
0	138208	13820.7	3
0	138796	13879.5	47
0	139974	13997.3	89
0	140460	14045.9	110
0	141538	14153.7	59
0	147196	14719.5	49
0	150278	15027.7	165
0	154240	15423.9	21
0	155136	15513.5	363
0	155512	15551.1	24
0	155906	15590.5	144
0	157298	15729.7	107
0	157790	15778.9	68
0	163688	16368.7	66
0	164014	16401.3	51
0	165542	16554.1	331
0	165898	16589.7	22
0	170434	17043.3	31
0	170526	17052.5	3
0	170970	17096.9	98
0	174008	17400.7	18
0	175978	17597.7	25
0	177498	17749.7	304
0	179168	17916.7	299
0	179906	17990.5	154
0	180608	18060.7	27
0	182358	18235.7	125
0	183004	18300.3	222
0	183422	18342.1	21
0	184140	18413.9	65
0	185070	18506.9	71
0	185342	18534.1	115
0	186232	18623.1	35
0	186968	18696.7	194
0	188530	18852.9	22
0	188678	18867.7	30
0	190776	19077.5	19
0	194086	19408.5	38
0	194126	19412.5	31
0	195016	19501.5	183
0	195888	19588.7	29
0	196476	19647.5	69
0	197166	19716.5	42
0	201042	20104.1	65
0	201250	20124.9	133
0	201874	20187.3	167
0	202952	20295.1	33
0	203134	20313.3	98
0	203714	20371.3	51
0	204674	20467.3	68
0	206528	20652.7	344
0	206932	20693.1	65
0	207092	20709.1	103
0	207244	20724.3	73
0	208656	20865.5	347
0	210226	21022.5	263
0	210332	21033.1	84
0	214296	21429.5	201
0	215026	21502.5	49
0	215912	21591.1	35
0	216298	21629.7	191
0	216698	21669.7	28
0	217954	21795.3	73
0	220002	22000.1	67
0	221020	22101.9	4
0	222742	22274.1	241
0	224888	22488.7	242
0	225398	22539.7	23
0	225634	22563.3	182
0	226828	22682.7	161
0	227522	22752.1	228
0	230198	23019.7	158
0	230838	23083.7	16
0	231424	23142.3	96
0	231714	23171.3	25
0	234962	23496.1	3
0	237048	23704.7	32
0	237438	23743.7	7
0	237888	23788.7	54
0	238624	23862.3	81
0	240084	24008.3	12
0	240206	24020.5	79
0	241182	24118.1	290
0	241256	24125.5	3
0	241668	24166.7	157
0	242228	24222.7	15
0	243116	24311.5	296
0	245340	24533.9	16
0	246464	24646.3	93
0	247976	24797.5	22
0	250998	25099.7	264
0	254436	25443.5	38
0	254846	25484.5	38
0	256670	25666.9	105
0	257506	25750.5	1
0	258074	25807.3	93
0	259802	25980.1	24
0	260704	26070.3	49
0	262598	26259.7	49
0	265304	26530.3	46
0	265828	26582.7	276
0	266892	26689.1	97
0	268928	26892.7	154
0	269228	26922.7	53
0	270874	27087.3	95
0	273218	27321.7	99
0	273518	27351.7	112
0	275890	27588.9	4
0	277900	27789.9	341
0	278064	27806.3	20
0	278564	27856.3	303
0	278896	27889.5	58
0	279228	27922.7	112
0	279744	27974.3	12
0	282324	28232.3	183
0	282480	28247.9	129
0	283502	28350.1	374
0	285574	28557.3	3
0	286782	28678.1	221
0	287204	28720.3	104
0	287340	28733.9	99
0	287770	28776.9	154
0	289772	28977.1	28
0	290110	29010.9	42
0	291518	29151.7	7
0	291812	29181.1	152
0	291930	29192.9	86
0	294172	29417.1	132
0	294424	29442.3	81
0	294454	29445.3	6
0	295602	29560.1	1
0	296068	29606.7	74
0	296336	29633.5	75
0	296994	29699.3	24
0	297346	29734.5	181
0	298438	29843.7	121
0	300204	30020.3	51
0	300606	30060.5	171
0	300756	30075.5	124
0	302146	30214.5	161
0	304152	30415.1	59
0	304244	30424.3	9
0	307020	30701.9	11
0	307060	30705.9	18
0	308670	30866.9	130
0	309470	30946.9	265
0	309634	30963.3	17
0	312714	31271.3	87
0	312716	31271.5	1
0	314610	31460.9	206
0	316344	31634.3	115
0	317516	31751.5	125
0	317976	31797.5	127
0	322162	32216.1	138
0	322462	32246.1	1
0	322992	32299.1	57
0	323322	32332.1	80
0	323860	32385.9	151
0	324136	32413.5	84
0	326988	32698.7	233
0	327160	32715.9	170
0	328064	32806.3	3
0	328836	32883.5	46
0	332344	33234.3	258
0	333012	33301.1	93
0	333522	33352.1	82
0	333658	33365.7	1
0	334360	33435.9	110
0	336600	33659.9	258
0	337630	33762.9	192
0	338534	33853.3	95
0	339464	33946.3	49
0	342454	34245.3	28
0	343608	34360.7	23
0	344392	34439.1	128
0	344764	34476.3	36
0	346534	34653.3	13
0	346856	34685.5	33
0	347290	34728.9	19
0	349712	34971.1	41
0	349888	34988.7	131
0	350484	35048.3	215
0	351230	35122.9	8
0	351474	35147.3	27
0	352332	35233.1	1
0	354418	35441.7	1
0	354920	35491.9	75
0	356488	35648.7	5
0	358068	35806.7	28
0	358134	35813.3	8
0	358870	35886.9	268
0	367644	36764.3	5
0	368228	36822.7	113
0	368936	36893.5	16
0	370164	37016.3	25
0	372158	37215.7	156
0	373778	37377.7	24
0	374596	37459.5	101
0	374838	37483.7	126
0	375342	37534.1	1
0	376220	37621.9	11
0	376726	37672.5	17
0	379508	37950.7	85
0	380536	38053.5	357
0	383486	38348.5	279
0	385958	38595.7	41
0	387158	38715.7	189
0	387920	38791.9	32
0	388568	38856.7	15
0	389122	38912.1	138
0	389934	38993.3	3
0	391814	39181.3	18
0	394282	39428.1	144
0	397288	39728.7	18
0	397962	39796.1	251
0	399120	39911.9	125
0	400010	40000.9	82
0	400148	40014.7	78
0	400878	40087.7	13
0	401962	40196.1	92
0	404766	40476.5	57
0	407640	40763.9	340
0	408432	40843.1	188
0	411318	41131.7	4
0	413078	41307.7	73
0	413096	41309.5	13
0	413556	41355.5	11
0	414490	41448.9	41
0	415454	41545.3	93
0	415874	41587.3	73
0	415940	41593.9	16
0	417164	41716.3	3
0	417426	41742.5	147
0	422680	42267.9	67
0	423460	42345.9	77
0	425732	42573.1	135
0	427752	42775.1	14
0	429436	42943.5	1
0	429992	42999.1	122
0	430702	43070.1	66
0	432012	43201.1	23
0	433864	43386.3	99
0	435156	43515.5	157
0	436064	43606.3	42
0	437322	43732.1	232
0	437548	43754.7	216
0	438494	43849.3	57
0	438772	43877.1	126
0	439232	43923.1	6
0	440052	44005.1	24
0	440964	44096.3	82
0	443662	44366.1	66
0	446440	44643.9	320
0	446750	44674.9	58
0	449270	44926.9	330
0	451532	45153.1	10
0	451832	45183.1	94
0	452342	45234.1	137
0	453008	45300.7	282
0	456676	45667.5	36
0	459490	45948.9	31
0	461840	46183.9	336
0	462520	46251.9	117
0	465302	46530.1	76
0	468230	46822.9	107
0	469498	46949.7	44
0	470160	47015.9	110
0	470752	47075.1	336
0	471794	47179.3	5
0	474086	47408.5	78
0	475960	47595.9	204
0	476088	47608.7	17
0	477224	47722.3	11
0	478142	47814.1	7
0	480704	48070.3	23
0	481348	48134.7	8
0	482352	48235.1	50
0	482808	48280.7	223
0	483360	48335.9	40
0	483534	48353.3	46
0	483966	48396.5	165
0	484746	48474.5	72
0	486126	48612.5	73
0	486470	48646.9	1
0	486740	48673.9	124
0	487580	48757.9	31
0	489428	48942.7	65
0	491204	49120.3	184
0	491436	49143.5	88
0	493208	49320.7	181
0	494186	49418.5	88
0	494378	49437.7	79
0	495570	49556.9	46
0	498622	49862.1	185
0	500466	50046.5	130
0	503250	50324.9	47
0	503568	50356.7	50
0	504286	50428.5	58
0	504548	50454.7	3
0	506626	50662.5	3
0	507146	50714.5	1
0	509314	50931.3	25
0	509482	50948.1	70
0	509584	50958.3	12
0	510042	51004.1	86
0	510278	51027.7	47
0	511420	51141.9	278
0	512868	51286.7	115
0	514640	51463.9	298
0	516078	51607.7	12
0	516622	51662.1	32
0	517568	51756.7	174
0	519410	51940.9	26
0	520320	52031.9	271
0	521462	52146.1	262
0	521874	52187.3	225
0	521998	52199.7	14
0	522328	52232.7	162
0	523848	52384.7	1
0	525584	52558.3	115
0	525748	52574.7	10
0	526642	52664.1	27
0	529764	52976.3	78
0	530736	53073.5	38
0	531352	53135.1	59
0	531646	53164.5	109
0	531770	53176.9	24
0	533990	53398.9	40
0	535686	53568.5	131
0	536864	53686.3	26
0	537510	53750.9	34
0	537654	53765.3	58
0	539212	53921.1	16
0	543422	54342.1	225
0	545438	54543.7	119
0	549676	54967.5	162
0	553154	55315.3	97
0	555124	55512.3	164
0	557740	55773.9	1
0	558926	55892.5	175
0	559584	55958.3	140
0	560160	56015.9	1
0	562224	56222.3	490
0	562918	56291.7	531
0	563076	56307.5	17
0	563756	56375.5	288
0	565406	56540.5	98
0	568480	56847.9	44
0	569246	56924.5	11
0	570510	57050.9	84
0	571012	57101.1	85
0	571576	57157.5	31
0	572444	57244.3	49
0	573414	57341.3	163
0	575636	57563.5	88
0	576234	57623.3	99
0	577600	57759.9	378
0	581546	58154.5	43
0	581930	58192.9	82
0	584660	58465.9	113
0	585060	58505.9	220
0	587694	58769.3	40
0	592224	59222.3	51
0	594526	59452.5	393
0	594886	59488.5	9
0	596454	59645.3	212
0	597502	59750.1	100
0	599260	59925.9	106
0	605374	60537.3	66
0	609410	60940.9	277
0	610192	61019.1	155
0	610440	61043.9	107
0	611142	61114.1	44
0	612038	61203.7	25
0	612262	61226.1	221
0	614380	61437.9	23
0	615320	61531.9	80
0	616286	61628.5	1
0	617336	61733.5	441
0	617862	61786.1	137
0	618360	61835.9	47
0	618734	61873.3	243
0	622774	62277.3	235
0	623792	62379.1	237
0	625556	62555.5	29
0	629852	62985.1	132
0	630722	63072.1	230
0	631682	63168.1	181
0	631808	63180.7	57
0	632744	63274.3	147
0	633444	63344.3	9
0	633624	63362.3	179
0	633902	63390.1	35
0	635852	63585.1	174
0	637936	63793.5	31
0	639312	63931.1	268
0	639756	63975.5	62
0	640710	64070.9	53
0	643390	64338.9	126
0	643842	64384.1	58
0	644472	64447.1	37
0	645122	64512.1	24
0	646762	64676.1	31
0	646882	64688.1	76
0	647582	64758.1	22
0	651820	65181.9	123
0	652582	65258.1	49
0	652854	65285.3	113
0	653636	65363.5	6
0	653990	65398.9	53
0	654300	65429.9	94
0	654910	65490.9	154
0	655602	65560.1	150
0	659132	65913.1	107
0	659774	65977.3	178
0	660276	66027.5	8
0	660724	66072.3	81
0	662190	66218.9	10
0	663574	66357.3	10
0	664052	66405.1	11
0	665104	66510.3	161
0	665280	66527.9	30
0	665368	66536.7	66
0	666898	66689.7	116
0	668822	66882.1	21
0	668994	66899.3	46
0	669368	66936.7	188
0	670244	67024.3	229
0	671554	67155.3	8
0	671852	67185.1	3
0	671990	67198.9	59
0	673940	67393.9	227
0	674842	67484.1	79
0	675476	67547.5	38
0	675606	67560.5	58
0	677658	67765.7	11
0	677780	67777.9	42
0	678064	67806.3	32
0	678540	67853.9	4
0	682832	68283.1	70
0	683122	68312.1	130
0	685896	68589.5	132
0	688302	68830.1	75
0	688894	68889.3	103
0	694972	69497.1	41
0	695582	69558.1	97
0	696836	69683.5	25
0	699154	69915.3	30
0	701984	70198.3	13
0	703822	70382.1	51
0	706016	70601.5	17
0	706608	70660.7	26
0	707568	70756.7	18
0	707954	70795.3	158
0	709124	70912.3	94
0	710028	71002.7	7
0	714806	71480.5	15
0	715560	71555.9	87
0	716802	71680.1	45
0	718892	71889.1	1
0	722636	72263.5	31
0	722842	72284.1	41
0	723092	72309.1	57
0	723610	72360.9	42
0	726460	72645.9	81
0	726556	72655.5	17
0	727848	72784.7	160
0	729120	72911.9	77
0	729966	72996.5	216
0	729976	72997.5	7
0	730746	73074.5	104
0	730748	73074.7	1
0	731016	73101.5	243
0	731316	73131.5	76
0	732020	73201.9	105
0	732290	73228.9	79
0	733758	73375.7	1
0	736256	73625.5	115
0	736542	73654.1	47
0	737958	73795.7	40
0	739258	73925.7	119
0	745034	74503.3	129
0	745382	74538.1	36
0	747048	74704.7	19
0	748710	74870.9	2
0	751128	75112.7	87
0	753266	75326.5	191
0	753936	75393.5	55
0	754848	75484.7	59
0	758232	75823.1	180
0	758548	75854.7	60
0	758982	75898.1	240
0	759694	75969.3	22
0	760446	76044.5	131
0	760718	76071.7	93
0	760854	76085.3	23
0	761972	76197.1	311
0	764080	76407.9	21
0	768494	76849.3	8
0	770548	77054.7	28
0	771666	77166.5	55
0	772920	77291.9	558
0	773760	77375.9	157
0	773914	77391.3	8
0	775126	77512.5	110
0	775852	77585.1	145
0	776430	77642.9	64
0	777148	77714.7	226
0	777668	77766.7	121
0	778104	77810.3	19
0	781084	78108.3	177
0	781966	78196.5	109
0	783110	78310.9	266
0	783906	78390.5	140
0	786416	78641.5	27
0	786838	78683.7	112
0	790146	79014.5	91
0	792016	79201.5	322
0	792136	79213.5	97
0	792720	79271.9	65
0	796916	79691.5	15
0	798422	79842.1	1
0	798622	79862.1	104
0	799204	79920.3	251
0	799400	79939.9	126
0	799660	79965.9	21
0	803470	80346.9	1
0	804808	80480.7	7
0	804874	80487.3	29
0	807924	80792.3	259
0	808200	80819.9	57
0	808612	80861.1	54
0	810884	81088.3	10
0	812600	81259.9	31
0	812860	81285.9	27
0	812914	81291.3	12
0	814398	81439.7	17
0	816906	81690.5	11
0	819790	81978.9	334
0	820290	82028.9	44
0	824038	82403.7	177
0	824280	82427.9	174
0	827372	82737.1	164
0	827462	82746.1	8
0	828110	82810.9	109
0	828344	82834.3	60
0	829784	82978.3	19
0	831108	83110.7	71
0	833104	83310.3	157
0	833480	83347.9	13
0	836590	83658.9	209
0	838746	83874.5	170
0	839832	83983.1	61
0	839980	83997.9	108
0	840726	84072.5	12
0	841644	84164.3	1
0	843976	84397.5	55
0	844202	84420.1	1
0	844490	84448.9	110
0	845620	84561.9	85
0	846058	84605.7	3
0	846980	84697.9	1
0	847518	84751.7	1
0	851048	85104.7	263
0	855896	85589.5	28
0	856162	85616.1	18
0	859182	85918.1	243
0	861632	86163.1	12
0	862870	86286.9	65
0	864298	86429.7	35
0	865070	86506.9	55
0	868538	86853.7	165
0	870202	87020.1	1
0	872076	87207.5	80
0	874268	87426.7	58
0	880012	88001.1	107
0	880776	88077.5	81
0	886846	88684.5	44
0	887694	88769.3	123
0	888806	88880.5	307
0	891206	89120.5	130
0	891512	89151.1	129
0	892092	89209.1	207
0	893704	89370.3	96
0	894990	89498.9	18
0	897308	89730.7	70
0	897570	89756.9	28
0	899098	89909.7	132
0	899816	89981.5	428
0	901664	90166.3	52
0	902278	90227.7	142
0	902614	90261.3	148
0	904426	90442.5	44
0	910144	91014.3	65
0	910594	91059.3	251
0	911030	91102.9	99
0	911384	91138.3	26
0	914954	91495.3	20
0	915316	91531.5	22
0	917048	91704.7	78
0	917430	91742.9	59
0	917590	91758.9	19
0	918696	91869.5	136
0	919704	91970.3	47
0	920070	92006.9	27
0	921026	92102.5	5
0	921436	92143.5	15
0	922590	92258.9	275
0	922604	92260.3	6
0	924076	92407.5	27
0	925090	92508.9	36
0	926334	92633.3	61
0	926768	92676.7	35
0	928258	92825.7	41
0	932230	93222.9	54
0	932496	93249.5	17
0	933874	93387.3	403
0	937112	93711.1	91
0	937320	93731.9	16
0	940826	94082.5	223
0	945682	94568.1	28
0	947526	94752.5	19
0	948020	94801.9	46
0	948766	94876.5	87
0	949990	94998.9	96
0	952878	95287.7	210
0	953130	95312.9	244
0	954682	95468.1	104
0	954804	95480.3	32
0	956928	95692.7	85
0	961326	96132.5	3
0	961404	96140.3	46
0	962424	96242.3	38
0	963650	96364.9	3
0	964790	96478.9	12
0	965208	96520.7	133
0	966282	96628.1	43
0	970528	97052.7	137
0	971012	97101.1	45
0	972366	97236.5	132
0	973634	97363.3	75
0	974702	97470.1	68
0	975740	97573.9	370
0	976714	97671.3	78
0	977446	97744.5	3
0	978210	97820.9	98
0	978838	97883.7	53
0	979430	97942.9	84
0	979954	97995.3	65
0	983144	98314.3	40
0	983896	98389.5	17
0	984490	98448.9	27
0	984914	98491.3	249
0	986272	98627.1	167
0	990734	99073.3	125
0	993692	99369.1	128
0	996206	99620.5	86
0	997550	99754.9	20
0	1000040	100003.9	13
0	1002154	100215.3	113
0	1006382	100638.1	3
0	1007240	100723.9	91
0	1007834	100783.3	238
0	1008366	100836.5	105
0	1009100	100909.9	63
0	1014564	101456.3	24
0	1015266	101526.5	111
0	1017564	101756.3	220
0	1019194	101919.3	32
0	1019940	101993.9	28
0	1021224	102122.3	46
0	1022202	102220.1	22
0	1023188	102318.7	30
0	1023598	102359.7	264
0	1025168	102516.7	4
0	1025930	102592.9	1
0	1026438	102643.7	217
0	1026650	102664.9	62
0	1028054	102805.3	8
0	1028168	102816.7	23
0	1029322	102932.1	131
0	1031036	103103.5	114
0	1031158	103115.7	28
0	1031766	103176.5	222
0	1034198	103419.7	187
0	1035378	103537.7	43
0	1035424	103542.3	20
0	1035996	103599.5	59
0	1037868	103786.7	34
0	1038398	103839.7	11
0	1038564	103856.3	27
0	1042140	104213.9	43
0	1043244	104324.3	14
0	1043474	104347.3	39
0	1043668	104366.7	10
0	1045600	104559.9	157
0	1045786	104578.5	119
0	1046930	104692.9	18
0	1048604	104860.3	77
0	1051096	105109.5	1
0	1051482	105148.1	27
0	1052456	105245.5	34
0	1052816	105281.5	100
0	1056520	105651.9	180
0	1057640	105763.9	31
0	1059254	105925.3	13
0	1059404	105940.3	45
0	1059670	105966.9	156
0	1060834	106083.3	247
0	1061230	106122.9	54
0	1062290	106228.9	10
0	1063344	106334.3	53
0	1067654	106765.3	177
0	1068130	106812.9	152
0	1068460	106845.9	32
0	1068816	106881.5	66
0	1068948	106894.7	28
0	1069326	106932.5	127
0	1070216	107021.5	5
0	1070454	107045.3	3
0	1071616	107161.5	229
0	1072478	107247.7	103
0	1072712	107271.1	175
0	1073414	107341.3	68
0	1073834	107383.3	26
0	1077992	107799.1	89
0	1078286	107828.5	86
0	1078514	107851.3	19
0	1080800	108079.9	87
0	1082448	108244.7	99
0	1082762	108276.1	27
0	1085846	108584.5	82
0	1087526	108752.5	28
0	1089220	108921.9	11
0	1089916	108991.5	47
0	1090794	109079.3	11
0	1091260	109125.9	138
0	1092762	109276.1	11
0	1096838	109683.7	317
0	1098272	109827.1	165
0	1098636	109863.5	137
0	1099278	109927.7	137
0	1099390	109938.9	55
0	1100670	110066.9	197
0	1105274	110527.3	247
0	1108644	110864.3	119
0	1109358	110935.7	1
0	1112040	111203.9	68
0	1113268	111326.7	113
0	1113902	111390.1	11
0	1114334	111433.3	388
0	1114676	111467.5	19
0	1116906	111690.5	9
0	1117460	111745.9	182
0	1123386	112338.5	40
0	1125404	112540.3	44
0	1128098	112809.7	19
0	1129398	112939.7	81
0	1132520	113251.9	58
0	1133736	113373.5	159
0	1134892	113489.1	53
0	1136706	113670.5	26
0	1137656	113765.5	270
0	1138778	113877.7	43
0	1138842	113884.1	7
0	1138844	113884.3	1
0	1139992	113999.1	106
0	1140096	114009.5	63
0	1140548	114054.7	13
0	1144196	114419.5	47
0	1145008	114500.7	12
0	1147514	114751.3	1
0	1148196	114819.5	203
0	1150758	115075.7	17
0	1151302	115130.1	12
0	1151318	115131.7	7
0	1152330	115232.9	41
0	1155758	115575.7	71
0	1156432	115643.1	36
0	1156852	115685.1	40
0	1157332	115733.1	148
0	1158726	115872.5	27
0	1159870	115986.9	65
0	1161160	116115.9	9
0	1162078	116207.7	119
0	1162920	116291.9	86
0	1163100	116309.9	6
0	1163392	116339.1	29
0	1165116	116511.5	24
0	1165422	116542.1	3
0	1165642	116564.1	81
0	1166516	116651.5	4
0	1167400	116739.9	69
0	1168096	116809.5	316
0	1169124	116912.3	59
0	1170210	117020.9	228
0	1171310	117130.9	6
0	1172532	117253.1	134
0	1173478	117347.7	260
0	1174004	117400.3	44
0	1175490	117548.9	7
0	1176502	117650.1	100
0	1176606	117660.5	76
0	1177042	117704.1	79
0	1177670	117766.9	275
0	1178766	117876.5	379
0	1180180	118017.9	82
0	1183070	118306.9	87
0	1183502	118350.1	3
0	1185304	118530.3	5
0	1185562	118556.1	128
0	1185978	118597.7	84
0	1186694	118669.3	419
0	1191154	119115.3	95
0	1192116	119211.5	38
0	1196436	119643.5	23
0	1196978	119697.7	32
0	1198944	119894.3	2
0	1199950	119994.9	142
0	1200328	120032.7	50
0	1201702	120170.1	80
0	1201900	120189.9	107
0	1202416	120241.5	57
0	1202844	120284.3	423
0	1203324	120332.3	104
0	1205880	120587.9	3
0	1209368	120936.7	65
0	1210582	121058.1	21
0	1212128	121212.7	91
0	1213206	121320.5	11
0	1216036	121603.5	13
0	1218770	121876.9	59
0	1220968	122096.7	12
0	1223250	122324.9	119
0	1224548	122454.7	171
0	1225256	122525.5	3
0	1226148	122614.7	13
0	1227774	122777.3	331
0	1230676	123067.5	266
0	1231144	123114.3	9
0	1231518	123151.7	44
0	1231852	123185.1	108
0	1232670	123266.9	60
0	1237432	123743.1	5
0	1237654	123765.3	4
0	1238866	123886.5	20
0	1242682	124268.1	134
0	1243750	124374.9	15
0	1244000	124399.9	90
0	1245206	124520.5	78
0	1245422	124542.1	205
0	1245426	124542.5	2
0	1248916	124891.5	68
0	1252720	125271.9	62
0	1254602	125460.1	286
0	1256788	125678.7	75
0	1258572	125857.1	126
0	1261086	126108.5	389
0	1261596	126159.5	208
0	1262370	126236.9	79
0	1262480	126247.9	92
0	1263938	126393.7	1
0	1268448	126844.7	48
0	1268784	126878.3	58
0	1272592	127259.1	117
0	1274660	127465.9	301
0	1275010	127500.9	261
0	1276746	127674.5	9
0	1277480	127747.9	145
0	1277858	127785.7	59
0	1282696	128269.5	67
0	1283540	128353.9	290
0	1284586	128458.5	6
0	1285788	128578.7	39
0	1287198	128719.7	34
0	1287780	128777.9	1
0	1288514	128851.3	98
0	1288720	128871.9	112
0	1288926	128892.5	14
0	1291988	129198.7	10
0	1293074	129307.3	305
0	1293660	129365.9	85
0	1293894	129389.3	6
0	1295096	129509.5	72
0	1296212	129621.1	129
0	1296514	129651.3	75
0	1297536	129753.5	8
0	1298100	129809.9	19
0	1300654	130065.3	19
0	1303200	130319.9	22
0	1303888	130388.7	44
0	1304306	130430.5	149
0	1304462	130446.1	74
0	1308454	130845.3	14
0	1309356	130935.5	34
0	1309982	130998.1	77
0	1311190	131118.9	178
0	1311562	131156.1	132
0	1311944	131194.3	65
0	1314646	131464.5	120
0	1315694	131569.3	243
0	1316122	131612.1	16
0	1316358	131635.7	15
0	1317080	131707.9	33
0	1317824	131782.3	240
0	1318402	131840.1	44
0	1318438	131843.7	16
0	1318762	131876.1	225
0	1319722	131972.1	110
0	1320418	132041.7	182
0	1320958	132095.7	113
0	1321216	132121.5	239
0	1321262	132126.1	36
0	1321726	132172.5	166
0	1322442	132244.1	27
0	1325870	132586.9	92
0	1326922	132692.1	58
0	1327908	132790.7	55
0	1328256	132825.5	42
0	1328380	132837.9	59
0	1329922	132992.1	75
0	1330598	133059.7	99
0	1331768	133176.7	420
0	1332952	133295.1	4
0	1333684	133368.3	12
0	1333844	133384.3	8
0	1333914	133391.3	36
0	1335780	133577.9	61
0	1336912	133691.1	107
0	1337366	133736.5	25
0	1337426	133742.5	37
0	1341734	134173.3	78
0	1343286	134328.5	194
0	1344046	134404.5	34
0	1345372	134537.1	399
0	1346176	134617.5	84
0	1346690	134668.9	28
0	1346874	134687.3	24
0	1347420	134741.9	282
0	1348590	134858.9	179
0	1349244	134924.3	255
0	1353208	135320.7	117
0	1355088	135508.7	26
0	1355208	135520.7	18
0	1355310	135530.9	69
0	1355620	135561.9	54
0	1355838	135583.7	98
0	1356170	135616.9	165
0	1357778	135777.7	130
0	1360500	136049.9	8
0	1361160	136115.9	393
0	1362724	136272.3	91
0	1363336	136333.5	129
0	1364294	136429.3	211
0	1366368	136636.7	187
0	1371722	137172.1	69
0	1372384	137238.3	211
0	1374752	137475.1	98
0	1377558	137755.7	68
0	1378890	137888.9	217
0	1380432	138043.1	5
0	1382052	138205.1	73
0	1384108	138410.7	338
0	1384606	138460.5	1
0	1385658	138565.7	172
0	1386266	138626.5	161
0	1386302	138630.1	15
0	1386716	138671.5	26
0	1387508	138750.7	27
0	1389390	138938.9	63
0	1391740	139173.9	73
0	1393510	139350.9	119
0	1396452	139645.1	47
0	1397862	139786.1	148
0	1398102	139810.1	165
0	1398368	139836.7	179
0	1398594	139859.3	90
0	1398826	139882.5	18
0	1399630	139962.9	119
0	1401308	140130.7	124
0	1401910	140190.9	128
0	1402338	140233.7	56
0	1404592	140459.1	126
0	1404734	140473.3	10
0	1404834	140483.3	71
0	1405858	140585.7	32
0	1406276	140627.5	48
0	1407256	140725.5	265
0	1408340	140833.9	102
0	1411322	141132.1	36
0	1412024	141202.3	55
0	1412524	141252.3	90
0	1413068	141306.7	123
0	1413816	141381.5	272
0	1414100	141409.9	7
0	1419914	141991.3	8
0	1420604	142060.3	483
0	1425168	142516.7	431
0	1425764	142576.3	27
0	1427516	142751.5	30
0	1432838	143283.7	32
0	1434004	143400.3	81
0	1437584	143758.3	93
0	1438782	143878.1	147
0	1439032	143903.1	12
0	1439496	143949.5	19
0	1440282	144028.1	42
0	1441384	144138.3	272
0	1441790	144178.9	21
0	1441986	144198.5	26
0	1443356	144335.5	90
0	1443502	144350.1	96
0	1445184	144518.3	55
0	1446232	144623.1	56
0	1448558	144855.7	402
0	1448852	144885.1	28
0	1449380	144937.9	14
0	1451050	145104.9	69
0	1451898	145189.7	187
0	1452686	145268.5	122
0	1454362	145436.1	67
0	1454528	145452.7	4
0	1456186	145618.5	31
0	1456754	145675.3	359
0	1457238	145723.7	100
0	1457914	145791.3	35
0	1459664	145966.3	138
0	1460028	146002.7	109
0	1460482	146048.1	80
0	1460898	146089.7	73
0	1462890	146288.9	127
0	1463932	146393.1	76
0	1466976	146697.5	2
0	1467740	146773.9	36
0	1467928	146792.7	99
0	1469470	146946.9	23
0	1473232	147323.1	165
0	1473446	147344.5	41
0	1475724	147572.3	32
0	1476124	147612.3	3
0	1476516	147651.5	295
0	1476962	147696.1	38
0	1477322	147732.1	43
0	1477820	147781.9	61
0	1478188	147818.7	1
0	1478888	147888.7	61
0	1479586	147958.5	31
0	1481180	148117.9	447
0	1481182	148118.1	1
0	1485770	148576.9	6
0	1486224	148622.3	65
0	1488310	148830.9	11
0	1490120	149011.9	404
0	1493490	149348.9	239
0	1494798	149479.7	224
0	1495324	149532.3	199
0	1495872	149587.1	173
0	1498010	149800.9	293
0	1499272	149927.1	110
0	1501028	150102.7	13
0	1501206	150120.5	162
0	1501896	150189.5	8
0	1501928	150192.7	8
0	1503212	150321.1	191
0	1504964	150496.3	4
0	1509546	150954.5	164
0	1509830	150982.9	82
0	1510474	151047.3	67
0	1510892	151089.1	33
0	1513902	151390.1	231
0	1515036	151503.5	10
0	1515166	151516.5	23
0	1515478	151547.7	36
0	1515660	151565.9	144
0	1518890	151888.9	37
0	1519592	151959.1	74
0	1520496	152049.5	123
0	1520728	152072.7	27
0	1521450	152144.9	33
0	1522334	152233.3	44
0	1522730	152272.9	66
0	1523670	152366.9	54
0	1525432	152543.1	143
0	1526238	152623.7	371
0	1526938	152693.7	121
0	1527136	152713.5	44
0	1527708	152770.7	118
0	1528554	152855.3	31
0	1530338	153033.7	4
0	1532672	153267.1	4
0	1533920	153391.9	14
0	1534432	153443.1	117
0	1535078	153507.7	179
0	1535208	153520.7	57
0	1535252	153525.1	18
0	1536404	153640.3	134
0	1536868	153686.7	212
0	1540558	154055.7	30
0	1540770	154076.9	1
0	1542606	154260.5	215
0	1545414	154541.3	16
0	1548694	154869.3	85
0	1549170	154916.9	191
0	1549452	154945.1	173
0	1550980	155097.9	62
0	1552004	155200.3	147
0	1552338	155233.7	106
0	1553448	155344.7	48
0	1554222	155422.1	15
0	1555002	155500.1	7
0	1557018	155701.7	78
0	1557700	155769.9	43
0	1558174	155817.3	71
0	1558990	155898.9	84
0	1560728	156072.7	51
0	1560842	156084.1	109
0	1561476	156147.5	294
0	1561672	156167.1	59
0	1563654	156365.3	234
0	1564310	156430.9	283
0	1565468	156546.7	55
0	1567670	156766.9	57
0	1569728	156972.7	106
0	1570470	157046.9	193
0	1572516	157251.5	118
0	1572838	157283.7	44
0	1575902	157590.1	9
0	1576832	157683.1	114
0	1582468	158246.7	126
0	1583472	158347.1	12
0	1585184	158518.3	62
0	1586182	158618.1	9
0	1586786	158678.5	85
0	1588012	158801.1	375
0	1588480	158847.9	141
0	1589220	158921.9	62
0	1589864	158986.3	30
0	1590800	159079.9	152
0	1590866	159086.5	22
0	1591822	159182.1	116
0	1594322	159432.1	95
0	1595758	159575.7	1
0	1596950	159694.9	179
0	1599122	159912.1	327
0	1601330	160132.9	14
0	1601764	160176.3	82
0	1603476	160347.5	1
0	1606018	160601.7	70
0	1612902	161290.1	17
0	1614458	161445.7	7
0	1617448	161744.7	76
0	1617956	161795.5	15
0	1619908	161990.7	16
0	1620012	162001.1	10
0	1624496	162449.5	1
0	1625954	162595.3	81
0	1627628	162762.7	371
0	1628110	162810.9	150
0	1634258	163425.7	185
0	1635002	163500.1	136
0	1636214	163621.3	40
0	1636754	163675.3	460
0	1637574	163757.3	76
0	1638176	163817.5	307
0	1639192	163919.1	12
0	1639222	163922.1	5
0	1641122	164112.1	36
0	1641348	164134.7	124
0	1644318	164431.7	118
0	1644752	164475.1	163
0	1647034	164703.3	80
0	1647408	164740.7	58
0	1647646	164764.5	233
0	1649554	164955.3	44