version 3
run General-3-20230611-05:47:39-420095
attr configname General
attr datetime 20230611-05:47:39
attr datetimef 20230611-054739
attr experiment General
attr inifile omnetpp.ini
attr iterationvars $N=4
attr iterationvarsd N=4
attr iterationvarsf N=4-
attr measurement $N=4
attr network LN
attr processid 420095
attr repetition 3
attr replication #3
attr resultdir results
attr runnumber 3
attr seedset 3
itervar N 4
config network LN
config sim-time-limit 250000s
config **.tic[*].hopCount.result-recording-modes +vector
config *.numCentralNodes 4
config repeat 4

vector 0 LN.lnd[11] hopCount:vector ETV
attr interpolationmode none
attr recordingmode vector
attr source arrival
attr title "hop count"
vector 1 LN.lnd[7] hopCount:vector ETV
attr interpolationmode none
attr recordingmode vector
attr source arrival
attr title "hop count"
vector 2 LN.lnd[2] hopCount:vector ETV
attr interpolationmode none
attr recordingmode vector
attr source arrival
attr title "hop count"
vector 3 LN.lnd[5] hopCount:vector ETV
attr interpolationmode none
attr recordingmode vector
attr source arrival
attr title "hop count"
vector 4 LN.lnd[9] hopCount:vector ETV
attr interpolationmode none
attr recordingmode vector
attr source arrival
attr title "hop count"
vector 5 LN.lnd[6] hopCount:vector ETV
attr interpolationmode none
attr recordingmode vector
attr source arrival
attr title "hop count"
vector 6 LN.lnd[14] hopCount:vector ETV
attr interpolationmode none
attr recordingmode vector
attr source arrival
attr title "hop count"
vector 7 LN.lnd[1] hopCount:vector ETV
attr interpolationmode none
attr recordingmode vector
attr source arrival
attr title "hop count"
vector 8 LN.lnd[19] hopCount:vector ETV
attr interpolationmode none
attr recordingmode vector
attr source arrival
attr title "hop count"
vector 9 LN.lnd[0] hopCount:vector ETV
attr interpolationmode none
attr recordingmode vector
attr source arrival
attr title "hop count"
vector 10 LN.lnd[4] hopCount:vector ETV
attr interpolationmode none
attr recordingmode vector
attr source arrival
attr title "hop count"
vector 11 LN.lnd[8] hopCount:vector ETV
attr interpolationmode none
attr recordingmode vector
attr source arrival
attr title "hop count"
vector 12 LN.lnd[15] hopCount:vector ETV
attr interpolationmode none
attr recordingmode vector
attr source arrival
attr title "hop count"
vector 13 LN.lnd[12] hopCount:vector ETV
attr interpolationmode none
attr recordingmode vector
attr source arrival
attr title "hop count"
vector 14 LN.lnd[18] hopCount:vector ETV
attr interpolationmode none
attr recordingmode vector
attr source arrival
attr title "hop count"
vector 15 LN.lnd[13] hopCount:vector ETV
attr interpolationmode none
attr recordingmode vector
attr source arrival
attr title "hop count"
vector 16 LN.lnd[17] hopCount:vector ETV
attr interpolationmode none
attr recordingmode vector
attr source arrival
attr title "hop count"
vector 17 LN.lnd[3] hopCount:vector ETV
attr interpolationmode none
attr recordingmode vector
attr source arrival
attr title "hop count"
vector 18 LN.lnd[16] hopCount:vector ETV
attr interpolationmode none
attr recordingmode vector
attr source arrival
attr title "hop count"
vector 19 LN.lnd[10] hopCount:vector ETV
attr interpolationmode none
attr recordingmode vector
attr source arrival
attr title "hop count"
0	39	3.8	38
0	1797	179.6	10
0	2827	282.6	63
0	4929	492.8	2
0	5833	583.2	65
0	6053	605.2	8
0	8491	849	14
0	8543	854.2	34
0	9003	900.2	60
0	10583	1058.2	12
0	11543	1154.2	59
0	13037	1303.6	2
0	14021	1402	42
0	14711	1471	28
0	15417	1541.6	59
0	15723	1572.2	131
0	17055	1705.4	67
0	17459	1745.8	28
0	17831	1783	20
0	18487	1848.6	29
0	18489	1848.8	1
0	19519	1951.8	64
0	19889	1988.8	23
0	22481	2248	19
0	23007	2300.6	22
0	23193	2319.2	53
0	24477	2447.6	47
0	24603	2460.2	27
0	26951	2695	3
0	29009	2900.8	30
0	29611	2961	27
0	34079	3407.8	11
0	35303	3530.2	2
0	37433	3743.2	15
0	41123	4112.2	29
0	42035	4203.4	219
0	42883	4288.2	55
0	44003	4400.2	6
0	44765	4476.4	66
0	45371	4537	19
0	45513	4551.2	15
0	46049	4604.8	55
0	47741	4774	3
0	48771	4877	175
0	51781	5178	165
0	53643	5364.2	34
0	59169	5916.8	35
0	59511	5951	56
0	60529	6052.8	107
0	62261	6226	25
0	63449	6344.8	21
0	63549	6354.8	7
0	68233	6823.2	8
0	70701	7070	49
0	72173	7217.2	7
0	74037	7403.6	94
0	74091	7409	8
0	74467	7446.6	41
0	74597	7459.6	10
0	76543	7654.2	49
0	77357	7735.6	22
0	78257	7825.6	6
0	79017	7901.6	201
0	79055	7905.4	29
0	81975	8197.4	2
0	83395	8339.4	86
0	83649	8364.8	31
0	87021	8702	44
0	87117	8711.6	46
0	87373	8737.2	53
0	90995	9099.4	219
0	91495	9149.4	22
0	92101	9210	64
0	92421	9242	91
0	92775	9277.4	37
0	93823	9382.2	6
0	95305	9530.4	14
0	95631	9563	158
0	97335	9733.4	90
0	97491	9749	39
0	97529	9752.8	3
0	98273	9827.2	4
0	98285	9828.4	2
0	102263	10226.2	33
0	103797	10379.6	2
0	107015	10701.4	81
0	107167	10716.6	11
0	108377	10837.6	59
0	108933	10893.2	2
0	109299	10929.8	133
0	111769	11176.8	112
0	113941	11394	44
0	116849	11684.8	31
0	117891	11789	84
0	119279	11927.8	15
0	119673	11967.2	114
0	123861	12386	20
0	124187	12418.6	19
0	125075	12507.4	4
0	128079	12807.8	31
0	128263	12826.2	109
0	129411	12941	132
0	130055	13005.4	94
0	130125	13012.4	6
0	131751	13175	105
0	132809	13280.8	27
0	136213	13621.2	4
0	136575	13657.4	58
0	141139	14113.8	83
0	141211	14121	67
0	141283	14128.2	71
0	141351	14135	17
0	144627	14462.6	147
0	145243	14524.2	5
0	146011	14601	120
0	147077	14707.6	43
0	147297	14729.6	132
0	147567	14756.6	21
0	148057	14805.6	4
0	149815	14981.4	8
0	150641	15064	34
0	152375	15237.4	2
0	152789	15278.8	25
0	155053	15505.2	119
0	157151	15715	12
0	162455	16245.4	18
0	163727	16372.6	49
0	163859	16385.8	15
0	167461	16746	40
0	168493	16849.2	183
0	168529	16852.8	35
0	170703	17070.2	90
0	171305	17130.4	1
0	171333	17133.2	22
0	174165	17416.4	88
0	174169	17416.8	3
0	174943	17494.2	83
0	175569	17556.8	27
0	176309	17630.8	27
0	176813	17681.2	113
0	177869	17786.8	41
0	178013	17801.2	31
0	178113	17811.2	23
0	179037	17903.6	147
0	179731	17973	102
0	179733	17973.2	1
0	181583	18158.2	47
0	182581	18258	17
0	183539	18353.8	88
0	184135	18413.4	90
0	184381	18438	105
0	191055	19105.4	25
0	194975	19497.4	68
0	195721	19572	57
0	197151	19715	158
0	200161	20016	142
0	201351	20135	148
0	202043	20204.2	74
0	203559	20355.8	40
0	203893	20389.2	246
0	205199	20519.8	3
0	207317	20731.6	32
0	207925	20792.4	151
0	208893	20889.2	148
0	209351	20935	145
0	210019	21001.8	301
0	211947	21194.6	98
0	212157	21215.6	76
0	215191	21519	31
0	215883	21588.2	42
0	216735	21673.4	26
0	217005	21700.4	7
0	218229	21822.8	79
0	218365	21836.4	3
0	219727	21972.6	3
0	224311	22431	53
0	225051	22505	32
0	233065	23306.4	67
0	233251	23325	184
0	234555	23455.4	36
0	234821	23482	53
0	234849	23484.8	26
0	238147	23814.6	154
0	239993	23999.2	101
0	240165	24016.4	31
0	242535	24253.4	7
0	243663	24366.2	241
0	244191	24419	27
0	244277	24427.6	36
0	244529	24452.8	63
0	245807	24580.6	9
0	247625	24762.4	18
0	247963	24796.2	32
0	249141	24914	33
0	250531	25053	122
0	250881	25088	18
0	251549	25154.8	27
0	252391	25239	43
0	254437	25443.6	128
0	261637	26163.6	21
0	263145	26314.4	9
0	264073	26407.2	204
0	268035	26803.4	45
0	268607	26860.6	5
0	273657	27365.6	195
0	274859	27485.8	48
0	275719	27571.8	5
0	275925	27592.4	81
0	275981	27598	21
0	278533	27853.2	98
0	281515	28151.4	105
0	283357	28335.6	25
0	286853	28685.2	89
0	287555	28755.4	16
0	287683	28768.2	25
0	287881	28788	45
0	288697	28869.6	36
0	288767	28876.6	21
0	289419	28941.8	1
0	289997	28999.6	246
0	290381	29038	13
0	292513	29251.2	74
0	293055	29305.4	28
0	294793	29479.2	85
0	297087	29708.6	38
0	298625	29862.4	7
0	299347	29934.6	52
0	300711	30071	34
0	301435	30143.4	21
0	303117	30311.6	4
0	304991	30499	90
0	306069	30606.8	265
0	307951	30795	145
0	308449	30844.8	21
0	308907	30890.6	15
0	311361	31136	106
0	312019	31201.8	144
0	314721	31472	461
0	314863	31486.2	101
0	315801	31580	124
0	316195	31619.4	238
0	316703	31670.2	35
0	319959	31995.8	50
0	321855	32185.4	2
0	322631	32263	44
0	323799	32379.8	52
0	325241	32524	13
0	326835	32683.4	13
0	329861	32986	53
0	331271	33127	99
0	334387	33438.6	84
0	334859	33485.8	50
0	335953	33595.2	21
0	339195	33919.4	54
0	339305	33930.4	30
0	339749	33974.8	165
0	343953	34395.2	197
0	344449	34444.8	62
0	345227	34522.6	190
0	350507	35050.6	37
0	350937	35093.6	25
0	351543	35154.2	50
0	352861	35286	120
0	353723	35372.2	85
0	354325	35432.4	43
0	363963	36396.2	25
0	365907	36590.6	61
0	366101	36610	19
0	370095	37009.4	18
0	370699	37069.8	41
0	374907	37490.6	162
0	375833	37583.2	58
0	377159	37715.8	12
0	379033	37903.2	138
0	380043	38004.2	164
0	381895	38189.4	9
0	383253	38325.2	63
0	388397	38839.6	57
0	388537	38853.6	49
0	391443	39144.2	49
0	393213	39321.2	71
0	396401	39640	57
0	396581	39658	25
0	397277	39727.6	245
0	397657	39765.6	26
0	398305	39830.4	28
0	399221	39922	14
0	400295	40029.4	243
0	400349	40034.8	23
0	400465	40046.4	23
0	400581	40058	39
0	400889	40088.8	14
0	401297	40129.6	87
0	401587	40158.6	86
0	402743	40274.2	114
0	404011	40401	100
0	404601	40460	42
0	404715	40471.4	5
0	408079	40807.8	42
0	409213	40921.2	17
0	410129	41012.8	95
0	411183	41118.2	54
0	411495	41149.4	17
0	411551	41155	18
0	411689	41168.8	1
0	413547	41354.6	188
0	414785	41478.4	38
0	416417	41641.6	35
0	417823	41782.2	42
0	419615	41961.4	97
0	420457	42045.6	141
0	420859	42085.8	86
0	424025	42402.4	22
0	424947	42494.6	139
0	424971	42497	14
0	426107	42610.6	112
0	430185	43018.4	52
0	435025	43502.4	144
0	435343	43534.2	29
0	436187	43618.6	63
0	436349	43634.8	85
0	440747	44074.6	8
0	441303	44130.2	18
0	443409	44340.8	35
0	446789	44678.8	70
0	446925	44692.4	9
0	449519	44951.8	2
0	449875	44987.4	25
0	450259	45025.8	45
0	450425	45042.4	92
0	450955	45095.4	27
0	452351	45235	135
0	453313	45331.2	29
0	456037	45603.6	71
0	456919	45691.8	137
0	464341	46434	11
0	466717	46671.6	94
0	467597	46759.6	224
0	468833	46883.2	45
0	469001	46900	149
0	471225	47122.4	101
0	471793	47179.2	28
0	472483	47248.2	295
0	472931	47293	14
0	473551	47355	14
0	478143	47814.2	41
0	480743	48074.2	18
0	480775	48077.4	29
0	482281	48228	110
0	484865	48486.4	11
0	485127	48512.6	67
0	485655	48565.4	24
0	487813	48781.2	1
0	487839	48783.8	19
0	488921	48892	39
0	488975	48897.4	22
0	491849	49184.8	122
0	495339	49533.8	80
0	495465	49546.4	41
0	495727	49572.6	33
0	496131	49613	35
0	496903	49690.2	16
0	500559	50055.8	108
0	501021	50102	12
0	501843	50184.2	45
0	503587	50358.6	31
0	505041	50504	23
0	505413	50541.2	18
0	507521	50752	39
0	508287	50828.6	22
0	508505	50850.4	171
0	509583	50958.2	31
0	509899	50989.8	16
0	510739	51073.8	21
0	510821	51082	71
0	511725	51172.4	28
0	513213	51321.2	14
0	515845	51584.4	7
0	516827	51682.6	22
0	516991	51699	107
0	518261	51826	18
0	518471	51847	140
0	519307	51930.6	33
0	521145	52114.4	5
0	522745	52274.4	31
0	525539	52553.8	94
0	526501	52650	99
0	527653	52765.2	74
0	531161	53116	10
0	533019	53301.8	179
0	533339	53333.8	115
0	535127	53512.6	215
0	536459	53645.8	49
0	536785	53678.4	15
0	541783	54178.2	43
0	542001	54200	59
0	542159	54215.8	22
0	542253	54225.2	38
0	543411	54341	75
0	544699	54469.8	31
0	544941	54494	15
0	545285	54528.4	61
0	546633	54663.2	29
0	546813	54681.2	148
0	547265	54726.4	2
0	548601	54860	4
0	549129	54912.8	36
0	549263	54926.2	11
0	551405	55140.4	3
0	551777	55177.6	147
0	554147	55414.6	16
0	554483	55448.2	168
0	554735	55473.4	21
0	555359	55535.8	137
0	557517	55751.6	105
0	558127	55812.6	21
0	558307	55830.6	26
0	559069	55906.8	32
0	563157	56315.6	113
0	564061	56406	16
0	564173	56417.2	105
0	564417	56441.6	68
0	564839	56483.8	249
0	565467	56546.6	2
0	569025	56902.4	52
0	570155	57015.4	11
0	570869	57086.8	125
0	572299	57229.8	85
0	572945	57294.4	21
0	573141	57314	9
0	577515	57751.4	37
0	577667	57766.6	37
0	579761	57976	76
0	581289	58128.8	206
0	583389	58338.8	73
0	587377	58737.6	11
0	588869	58886.8	22
0	589115	58911.4	26
0	593277	59327.6	41
0	596091	59609	52
0	597925	59792.4	59
0	598553	59855.2	181
0	599693	59969.2	50
0	602175	60217.4	2
0	604271	60427	33
0	604333	60433.2	3
0	608749	60874.8	5
0	609163	60916.2	16
0	609461	60946	25
0	610205	61020.4	116
0	610977	61097.6	8
0	611613	61161.2	28
0	613389	61338.8	17
0	613605	61360.4	67
0	621093	62109.2	4
0	621209	62120.8	104
0	621427	62142.6	18
0	621591	62159	2
0	622013	62201.2	50
0	623057	62305.6	43
0	623777	62377.6	28
0	625301	62530	28
0	626353	62635.2	44
0	626565	62656.4	83
0	626711	62671	19
0	626745	62674.4	23
0	626951	62695	199
0	631087	63108.6	53
0	631623	63162.2	35
0	631811	63181	57
0	632081	63208	44
0	632555	63255.4	18
0	634831	63483	24
0	635705	63570.4	5
0	636319	63631.8	11
0	636907	63690.6	41
0	638111	63811	54
0	639859	63985.8	14
0	640167	64016.6	12
0	640605	64060.4	8
0	641875	64187.4	41
0	643001	64300	24
0	647041	64704	29
0	647149	64714.8	18
0	647225	64722.4	32
0	649373	64937.2	27
0	649511	64951	3
0	650007	65000.6	195
0	650217	65021.6	15
0	650455	65045.4	86
0	650703	65070.2	51
0	653633	65363.2	31
0	653847	65384.6	9
0	657071	65707	33
0	657513	65751.2	211
0	659089	65908.8	4
0	659301	65930	167
0	662825	66282.4	10
0	663473	66347.2	214
0	663639	66363.8	11
0	665093	66509.2	15
0	665427	66542.6	2
0	666257	66625.6	83
0	666333	66633.2	13
0	667183	66718.2	16
0	668393	66839.2	101
0	668949	66894.8	11
0	672755	67275.4	3
0	673919	67391.8	9
0	673967	67396.6	24
0	676045	67604.4	9
0	676533	67653.2	22
0	677601	67760	1
0	679633	67963.2	88
0	679945	67994.4	98
0	681835	68183.4	23
0	682311	68231	67
0	682733	68273.2	7
0	685385	68538.4	69
0	686223	68622.2	53
0	686435	68643.4	9
0	690661	69066	222
0	691405	69140.4	65
0	692391	69239	5
0	693171	69317	24
0	694697	69469.6	101
0	696395	69639.4	39
0	699639	69963.8	7
0	699853	69985.2	78
0	700587	70058.6	46
0	701583	70158.2	17
0	702757	70275.6	29
0	703103	70310.2	2
0	707001	70700	44
0	709437	70943.6	102
0	713117	71311.6	76
0	713485	71348.4	21
0	713617	71361.6	84
0	714165	71416.4	151
0	716533	71653.2	6
0	716775	71677.4	30
0	717861	71786	15
0	719591	71959	107
0	722353	72235.2	137
0	722595	72259.4	54
0	724855	72485.4	3
0	725427	72542.6	9
0	725587	72558.6	104
0	728989	72898.8	107
0	731131	73113	122
0	731923	73192.2	104
0	733459	73345.8	7
0	738503	73850.2	88
0	739719	73971.8	1
0	740051	74005	38
0	740581	74058	126
0	741007	74100.6	40
0	742107	74210.6	143
0	743091	74309	10
0	743557	74355.6	32
0	744167	74416.6	1
0	744729	74472.8	74
0	745071	74507	19
0	745443	74544.2	1
0	746055	74605.4	7
0	747731	74773	31
0	748049	74804.8	14
0	748901	74890	8
0	749607	74960.6	83
0	749723	74972.2	104
0	752239	75223.8	88
0	753039	75303.8	9
0	758135	75813.4	43
0	760347	76034.6	54
0	761209	76120.8	2
0	761419	76141.8	138
0	762131	76213	50
0	763019	76301.8	7
0	764055	76405.4	71
0	765647	76564.6	24
0	766975	76697.4	7
0	768205	76820.4	49
0	769341	76934	193
0	773813	77381.2	136
0	774605	77460.4	201
0	775975	77597.4	109
0	778727	77872.6	75
0	780993	78099.2	47
0	788777	78877.6	28
0	790185	79018.4	7
0	790537	79053.6	63
0	791593	79159.2	48
0	791857	79185.6	89
0	792777	79277.6	40
0	793081	79308	115
0	793467	79346.6	4
0	795667	79566.6	67
0	795937	79593.6	249
0	798951	79895	7
0	799039	79903.8	37
0	799275	79927.4	82
0	799623	79962.2	3
0	799795	79979.4	95
0	801139	80113.8	23
0	801663	80166.2	5
0	803433	80343.2	14
0	804455	80445.4	81
0	806615	80661.4	19
0	806727	80672.6	48
0	806815	80681.4	60
0	807425	80742.4	34
0	809943	80994.2	88
0	811505	81150.4	9
0	812313	81231.2	128
0	813391	81339	14
0	815055	81505.4	69
0	815253	81525.2	48
0	815409	81540.8	80
0	816279	81627.8	79
0	817061	81706	112
0	820423	82042.2	11
0	822263	82226.2	70
0	822537	82253.6	17
0	823783	82378.2	49
0	824833	82483.2	71
0	825119	82511.8	17
0	825269	82526.8	69
0	826123	82612.2	119
0	826345	82634.4	17
0	826823	82682.2	35
0	828061	82806	102
0	829557	82955.6	385
0	830251	83025	21
0	830875	83087.4	142
0	834131	83413	93
0	837673	83767.2	5
0	838835	83883.4	23
0	841021	84102	50
0	843065	84306.4	33
0	843719	84371.8	32
0	845407	84540.6	217
0	846705	84670.4	126
0	846899	84689.8	45
0	847683	84768.2	7
0	847911	84791	11
0	849101	84910	44
0	849551	84955	81
0	849711	84971	49
0	850921	85092	53
0	851531	85153	29
0	853525	85352.4	40
0	854617	85461.6	176
0	856619	85661.8	49
0	856661	85666	13
0	857295	85729.4	81
0	857557	85755.6	80
0	858043	85804.2	58
0	858319	85831.8	15
0	860371	86037	337
0	860947	86094.6	115
0	863919	86391.8	5
0	869653	86965.2	72
0	872629	87262.8	182
0	873569	87356.8	89
0	874113	87411.2	330
0	874813	87481.2	82
0	876959	87695.8	10
0	878101	87810	55
0	879081	87908	9
0	879373	87937.2	6
0	883181	88318	65
0	883521	88352	88
0	884831	88483	6
0	885785	88578.4	12
0	887653	88765.2	6
0	887757	88775.6	1
0	892433	89243.2	59
0	893351	89335	5
0	895091	89509	174
0	895475	89547.4	117
0	896235	89623.4	158
0	897207	89720.6	23
0	897327	89732.6	3
0	897691	89769	235
0	897987	89798.6	19
0	899323	89932.2	24
0	899657	89965.6	119
0	901789	90178.8	43
0	901897	90189.6	3
0	907035	90703.4	139
0	907927	90792.6	43
0	908781	90878	73
0	910131	91013	32
0	910487	91048.6	8
0	911949	91194.8	28
0	912373	91237.2	28
0	912963	91296.2	51
0	913111	91311	124
0	915027	91502.6	75
0	918091	91809	115
0	920833	92083.2	19
0	920931	92093	73
0	921555	92155.4	325
0	922615	92261.4	112
0	924379	92437.8	280
0	924833	92483.2	14
0	925365	92536.4	53
0	925703	92570.2	21
0	926615	92661.4	27
0	927175	92717.4	68
0	927945	92794.4	75
0	931231	93123	36
0	932307	93230.6	427
0	937763	93776.2	42
0	939623	93962.2	98
0	944493	94449.2	28
0	944941	94494	40
0	946833	94683.2	44
0	946883	94688.2	15
0	947461	94746	115
0	950831	95083	237
0	951739	95173.8	123
0	953837	95383.6	180
0	955951	95595	38
0	959083	95908.2	119
0	963255	96325.4	35
0	964653	96465.2	142
0	965307	96530.6	16
0	965351	96535	24
0	966125	96612.4	30
0	967563	96756.2	84
0	969307	96930.6	6
0	969749	96974.8	93
0	970165	97016.4	14
0	970897	97089.6	12
0	973111	97311	15
0	974573	97457.2	13
0	976457	97645.6	299
0	977201	97720	14
0	977617	97761.6	74
0	977713	97771.2	9
0	978065	97806.4	144
0	978285	97828.4	68
0	979667	97966.6	65
0	980665	98066.4	109
0	980771	98077	41
0	981651	98165	3
0	985275	98527.4	6
0	986217	98621.6	21
0	988783	98878.2	70
0	989649	98964.8	90
0	991805	99180.4	54
0	993073	99307.2	18
0	994705	99470.4	99
0	995967	99596.6	79
0	997903	99790.2	46
0	998077	99807.6	19
0	1000541	100054	5
0	1005713	100571.2	9
0	1005935	100593.4	6
0	1011717	101171.6	10
0	1012173	101217.2	241
0	1012353	101235.2	70
0	1012833	101283.2	143
0	1013281	101328	157
0	1014039	101403.8	21
0	1015031	101503	51
0	1015163	101516.2	115
0	1017895	101789.4	15
0	1018091	101809	87
0	1020067	102006.6	137
0	1020441	102044	64
0	1020583	102058.2	31
0	1020833	102083.2	28
0	1021267	102126.6	68
0	1021477	102147.6	5
0	1022327	102232.6	20
0	1022835	102283.4	5
0	1023707	102370.6	58
0	1023709	102370.8	1
0	1026321	102632	33
0	1026653	102665.2	81
0	1026683	102668.2	24
0	1027923	102792.2	48
0	1029995	102999.4	38
0	1031625	103162.4	2
0	1035635	103563.4	93
0	1037809	103780.8	38
0	1038539	103853.8	61
0	1040511	104051	6
0	1042589	104258.8	230
0	1044067	104406.6	22
0	1044077	104407.6	9
0	1044573	104457.2	157
0	1044753	104475.2	35
0	1045415	104541.4	43
0	1046215	104621.4	32
0	1047447	104744.6	124
0	1047667	104766.6	22
0	1049695	104969.4	86
0	1051105	105110.4	18
0	1051185	105118.4	38
0	1051381	105138	24
0	1052863	105286.2	91
0	1053065	105306.4	12
0	1053953	105395.2	28
0	1054257	105425.6	62
0	1054915	105491.4	28
0	1056043	105604.2	40
0	1057013	105701.2	14
0	1057615	105761.4	14
0	1061955	106195.4	45
0	1063321	106332	11
0	1063643	106364.2	141
0	1067587	106758.6	140
0	1068755	106875.4	15
0	1069583	106958.2	35
0	1070159	107015.8	40
0	1070579	107057.8	94
0	1072567	107256.6	6
0	1073237	107323.6	19
0	1073557	107355.6	25
0	1074331	107433	116
0	1075441	107544	12
0	1076523	107652.2	28
0	1077995	107799.4	72
0	1079505	107950.4	68
0	1079987	107998.6	71
0	1080853	108085.2	1
0	1081125	108112.4	115
0	1082573	108257.2	236
0	1082861	108286	81
0	1083117	108311.6	16
0	1084765	108476.4	68
0	1088483	108848.2	35
0	1088515	108851.4	29
0	1088751	108875	35
0	1090941	109094	253
0	1092451	109245	53
0	1093177	109317.6	95
0	1095189	109518.8	44
0	1096807	109680.6	93
0	1096891	109689	3
0	1097473	109747.2	29
0	1098403	109840.2	82
0	1100505	110050.4	42
0	1101835	110183.4	95
0	1102023	110202.2	59
0	1109873	110987.2	141
0	1110119	111011.8	117
0	1110127	111012.6	7
0	1113401	111340	6
0	1115167	111516.6	30
0	1116401	111640	68
0	1119193	111919.2	118
0	1122845	112284.4	109
0	1123053	112305.2	2
0	1127713	112771.2	114
0	1129539	112953.8	4
0	1131451	113145	91
0	1132293	113229.2	67
0	1133483	113348.2	2
0	1134291	113429	11
0	1136623	113662.2	130
0	1142223	114222.2	13
0	1142441	114244	38
0	1144433	114443.2	1
0	1144573	114457.2	139
0	1145409	114540.8	27
0	1147633	114763.2	138
0	1147995	114799.4	52
0	1148323	114832.2	21
0	1150629	115062.8	5
0	1155243	115524.2	115
0	1155741	115574	10
0	1156147	115614.6	116
0	1156393	115639.2	145
0	1159203	115920.2	34
0	1160355	116035.4	3
0	1160773	116077.2	53
0	1161327	116132.6	12
0	1164233	116423.2	53
0	1164899	116489.8	94
0	1165551	116555	16
0	1166013	116601.2	27
0	1171413	117141.2	57
0	1173519	117351.8	20
0	1173643	117364.2	87
0	1174289	117428.8	36
0	1176941	117694	23
0	1178403	117840.2	104
0	1180321	118032	4
0	1180639	118063.8	37
0	1181021	118102	3
0	1182675	118267.4	89
0	1183277	118327.6	71
0	1190027	119002.6	91
0	1191515	119151.4	45
0	1192415	119241.4	28
0	1195409	119540.8	48
0	1197327	119732.6	69
0	1198321	119832	211
0	1198543	119854.2	51
0	1202001	120200	11
0	1202431	120243	22
0	1203675	120367.4	91
0	1206413	120641.2	29
0	1206575	120657.4	110
0	1207657	120765.6	45
0	1208453	120845.2	24
0	1208637	120863.6	13
0	1209895	120989.4	35
0	1211299	121129.8	144
0	1211505	121150.4	65
0	1213575	121357.4	26
0	1215337	121533.6	7
0	1217395	121739.4	77
0	1220651	122065	22
0	1220803	122080.2	82
0	1221435	122143.4	51
0	1223783	122378.2	12
0	1224479	122447.8	52
0	1225767	122576.6	6
0	1227209	122720.8	66
0	1228055	122805.4	89
0	1228993	122899.2	15
0	1229399	122939.8	114
0	1230657	123065.6	134
0	1231095	123109.4	27
0	1233363	123336.2	143
0	1237959	123795.8	93
0	1238075	123807.4	40
0	1239447	123944.6	29
0	1242381	124238	106
0	1249157	124915.6	61
0	1249635	124963.4	3
0	1250007	125000.6	53
0	1250395	125039.4	61
0	1253003	125300.2	251
0	1255315	125531.4	22
0	1259385	125938.4	68
0	1260765	126076.4	80
0	1261463	126146.2	142
0	1262803	126280.2	22
0	1263119	126311.8	66
0	1264007	126400.6	14
0	1264307	126430.6	117
0	1264347	126434.6	10
0	1266129	126612.8	46
0	1266751	126675	77
0	1266779	126677.8	18
0	1267895	126789.4	150
0	1268733	126873.2	48
0	1270329	127032.8	66
0	1272769	127276.8	138
0	1273063	127306.2	28
0	1279199	127919.8	10
0	1280207	128020.6	86
0	1283835	128383.4	51
0	1284325	128432.4	2
0	1284375	128437.4	17
0	1284929	128492.8	9
0	1286097	128609.6	119
0	1291987	129198.6	75
0	1299103	129910.2	51
0	1299611	129961	57
0	1300623	130062.2	8
0	1301879	130187.8	39
0	1302155	130215.4	14
0	1303925	130392.4	63
0	1304067	130406.6	41
0	1304429	130442.8	8
0	1306517	130651.6	185
0	1307569	130756.8	152
0	1308129	130812.8	166
0	1308743	130874.2	108
0	1309989	130998.8	38
0	1310069	131006.8	34
0	1313853	131385.2	197
0	1319183	131918.2	11
0	1320047	132004.6	27
0	1321941	132194	19
0	1324135	132413.4	193
0	1324501	132450	12
0	1327003	132700.2	222
0	1327417	132741.6	33
0	1328149	132814.8	10
0	1328545	132854.4	73
0	1330117	133011.6	183
0	1330173	133017.2	15
0	1330277	133027.6	2
0	1331273	133127.2	134
0	1332989	133298.8	2
0	1333383	133338.2	297
0	1333843	133384.2	117
0	1336103	133610.2	61
0	1336509	133650.8	31
0	1337159	133715.8	9
0	1337559	133755.8	46
0	1339381	133938	93
0	1339721	133972	66
0	1341789	134178.8	125
0	1344153	134415.2	41
0	1348017	134801.6	1
0	1350951	135095	160
0	1352523	135252.2	2
0	1352911	135291	26
0	1355025	135502.4	117
0	1355231	135523	14
0	1355367	135536.6	63
0	1355969	135596.8	40
0	1356983	135698.2	50
0	1361759	136175.8	69
0	1362415	136241.4	37
0	1362951	136295	320
0	1363323	136332.2	31
0	1367423	136742.2	1
0	1367949	136794.8	86
0	1369533	136953.2	86
0	1370413	137041.2	104
0	1370979	137097.8	6
0	1373155	137315.4	15
0	1374083	137408.2	275
0	1374619	137461.8	48
0	1384859	138485.8	21
0	1386023	138602.2	310
0	1386271	138627	42
0	1386999	138699.8	45
0	1389795	138979.4	65
0	1389921	138992	102
0	1392369	139236.8	187
0	1393893	139389.2	30
0	1395723	139572.2	88
0	1398833	139883.2	21
0	1403909	140390.8	4
0	1404563	140456.2	244
0	1407025	140702.4	39
0	1407159	140715.8	27
0	1408629	140862.8	6
0	1414201	141420	89
0	1416877	141687.6	34
0	1417637	141763.6	44
0	1421497	142149.6	43
0	1421815	142181.4	20
0	1422347	142234.6	23
0	1424831	142483	36
0	1427743	142774.2	144
0	1431787	143178.6	65
0	1432781	143278	89
0	1433589	143358.8	4
0	1433891	143389	61
0	1433951	143395	31
0	1434973	143497.2	33
0	1435071	143507	73
0	1436457	143645.6	113
0	1437161	143716	23
0	1438071	143807	83
0	1439195	143919.4	42
0	1439693	143969.2	2
0	1440563	144056.2	84
0	1442601	144260	63
0	1443081	144308	73
0	1446269	144626.8	87
0	1446937	144693.6	31
0	1447569	144756.8	139
0	1449027	144902.6	128
0	1449153	144915.2	51
0	1449245	144924.4	46
0	1450207	145020.6	6
0	1451189	145118.8	185
0	1451291	145129	83
0	1453485	145348.4	6
0	1454777	145477.6	68
0	1455475	145547.4	5
0	1456383	145638.2	151
0	1461507	146150.6	122
0	1462399	146239.8	18
0	1462543	146254.2	137
0	1462709	146270.8	47
0	1467037	146703.6	13
0	1467573	146757.2	56
0	1469419	146941.8	28
0	1470639	147063.8	28
0	1470871	147087	15
0	1471533	147153.2	58
0	1475379	147537.8	50
0	1475547	147554.6	30
0	1476313	147631.2	37
0	1478441	147844	137
0	1482115	148211.4	252
0	1485245	148524.4	122
0	1487907	148790.6	145
0	1490087	149008.6	41
0	1491341	149134	46
0	1491467	149146.6	36
0	1491573	149157.2	15
0	1491871	149187	15
0	1492969	149296.8	107
0	1493617	149361.6	26
0	1496791	149679	113
0	1497895	149789.4	30
0	1498795	149879.4	64
0	1500269	150026.8	61
0	1502895	150289.4	24
0	1502975	150297.4	15
0	1504617	150461.6	23
0	1511173	151117.2	305
0	1513021	151302	58
0	1513991	151399	11
0	1514295	151429.4	21
0	1516729	151672.8	95
0	1517185	151718.4	12
0	1517677	151767.6	40
0	1518129	151812.8	79
0	1518797	151879.6	119
0	1519427	151942.6	50
0	1519939	151993.8	3
0	1520125	152012.4	85
0	1522349	152234.8	66
0	1522373	152237.2	15
0	1523785	152378.4	253
0	1523963	152396.2	47
0	1524173	152417.2	61
0	1524519	152451.8	15
0	1525803	152580.2	15
0	1527229	152722.8	18
0	1528311	152831	35
0	1528817	152881.6	107
0	1530035	153003.4	15
0	1530451	153045	14
0	1533293	153329.2	74
0	1533379	153337.8	25
0	1535457	153545.6	84
0	1538177	153817.6	19
0	1540397	154039.6	3
0	1540651	154065	10
0	1544889	154488.8	19
0	1546443	154644.2	77
0	1548415	154841.4	60
0	1549231	154923	82
0	1549353	154935.2	108
0	1549813	154981.2	20
0	1551343	155134.2	65
0	1552207	155220.6	11
0	1552483	155248.2	31
0	1553989	155398.8	3
0	1554861	155486	31
0	1555697	155569.6	14
0	1556071	155607	221
0	1557241	155724	13
0	1560551	156055	52
0	1561313	156131.2	22
0	1563721	156372	5
0	1564075	156407.4	94
0	1564257	156425.6	16
0	1565885	156588.4	83
0	1566533	156653.2	183
0	1568999	156899.8	69
0	1570341	157034	20
0	1571547	157154.6	31
0	1571699	157169.8	33
0	1572905	157290.4	102
0	1573279	157327.8	35
0	1575067	157506.6	32
0	1575419	157541.8	10
0	1575549	157554.8	2
0	1578219	157821.8	5
0	1582317	158231.6	26
0	1584525	158452.4	25
0	1587735	158773.4	137
0	1587813	158781.2	37
0	1588911	158891	257
0	1589611	158961	40
0	1591039	159103.8	33
0	1591127	159112.6	6
0	1591933	159193.2	65
0	1593083	159308.2	9
0	1593563	159356.2	11
0	1593963	159396.2	92
0	1594491	159449	41
0	1598647	159864.6	46
0	1598917	159891.6	7
0	1599957	159995.6	76
0	1600367	160036.6	87
0	1601625	160162.4	29
0	1601799	160179.8	32
0	1605469	160546.8	7
0	1606465	160646.4	5
0	1606783	160678.2	86
0	1609283	160928.2	85
0	1610573	161057.2	2
0	1611985	161198.4	145
0	1614109	161410.8	2
0	1614519	161451.8	22
0	1617267	161726.6	12
0	1617305	161730.4	12
0	1617775	161777.4	7
0	1620023	162002.2	9
0	1621043	162104.2	38
0	1621509	162150.8	195
0	1621687	162168.6	9
0	1626103	162610.2	8
0	1629455	162945.4	17
0	1630819	163081.8	268
0	1631035	163103.4	6
0	1631813	163181.2	136
0	1634167	163416.6	203
0	1637039	163703.8	83
0	1637827	163782.6	34
0	1639001	163900	164
0	1643631	164363	9
0	1644427	164442.6	110
0	1645497	164549.6	130
0	1645739	164573.8	50
0	1647999	164799.8	3
0	1653555	165355.4	26
0	1655847	165584.6	152
0	1657889	165788.8	4
0	1659083	165908.2	8
0	1659271	165927	35
0	1660673	166067.2	47
0	1662643	166264.2	122
0	1664229	166422.8	118
0	1665881	166588	2
0	1666663	166666.2	36
0	1668871	166887	30
0	1669839	166983.8	128
0	1673847	167384.6	4
0	1674489	167448.8	99
0	1677763	167776.2	82
0	1679685	167968.4	19
0	1679875	167987.4	124
0	1680057	168005.6	142
0	1680961	168096	8
0	1682015	168201.4	30
0	1682811	168281	6
0	1685799	168579.8	54
0	1685963	168596.2	28
0	1687429	168742.8	179
0	1688081	168808	13
0	1688375	168837.4	241
0	1689163	168916.2	9
0	1690757	169075.6	87
0	1691959	169195.8	31
0	1692509	169250.8	12
0	1694571	169457	60
0	1694967	169496.6	154
0	1696071	169607	109
0	1705187	170518.6	96
0	1706501	170650	73
0	1707773	170777.2	27
0	1708041	170804	116
0	1708877	170887.6	70
0	1709445	170944.4	58
0	1710499	171049.8	145
0	1710615	171061.4	21
0	1712525	171252.4	20
0	1715075	171507.4	129
0	1715307	171530.6	77
0	1715429	171542.8	102
0	1716831	171683	70
0	1718801	171880	6
0	1721151	172115	24
0	1721369	172136.8	4
0	1723073	172307.2	4
0	1726765	172676.4	19
0	1728783	172878.2	178
0	1730357	173035.6	18
0	1730891	173089	30
0	1731767	173176.6	83
0	1735129	173512.8	3
0	1735731	173573	30
0	1736827	173682.6	37
0	1737927	173792.6	255
0	1738935	173893.4	7
0	1742145	174214.4	49
0	1742611	174261	48
0	1744097	174409.6	122
0	1744401	174440	72
0	1744791	174479	39
0	1745029	174502.8	32
0	1745131	174513	71
0	1746233	174623.2	35
0	1747879	174787.8	62
0	1751985	175198.4	107
0	1752229	175222.8	22
0	1753285	175328.4	16
0	1753561	175356	6
0	1755467	175546.6	159
0	1755601	175560	13
0	1756049	175604.8	34
0	1757363	175736.2	114
0	1757831	175783	142
0	1758715	175871.4	43
0	1758979	175897.8	54
0	1759229	175922.8	51
0	1759757	175975.6	52
0	1761279	176127.8	307
0	1762175	176217.4	69
0	1764255	176425.4	2
0	1764865	176486.4	22
0	1765891	176589	10
0	1767465	176746.4	3
0	1769219	176921.8	31
0	1772017	177201.6	14
0	1772689	177268.8	12
0	1773051	177305	21
0	1774579	177457.8	145
0	1776341	177634	128
0	1776531	177653	88
0	1776997	177699.6	31