version 3
run General-114-20230611-05:41:41-416630
attr configname General
attr datetime 20230611-05:41:41
attr datetimef 20230611-054141
attr experiment General
attr inifile omnetpp.ini
attr iterationvars $N=88
attr iterationvarsd N=88
attr iterationvarsf N=88-
attr measurement $N=88
attr network LN
attr processid 416630
attr repetition 2
attr replication #2
attr resultdir results
attr runnumber 114
attr seedset 114
itervar N 88
config network LN
config sim-time-limit 250000s
config **.tic[*].hopCount.result-recording-modes +vector
config *.numCentralNodes 88
config repeat 4

vector 0 LN.lnd[11] hopCount:vector ETV
attr interpolationmode none
attr recordingmode vector
attr source arrival
attr title "hop count"
vector 1 LN.lnd[19] hopCount:vector ETV
attr interpolationmode none
attr recordingmode vector
attr source arrival
attr title "hop count"
vector 2 LN.lnd[3] hopCount:vector ETV
attr interpolationmode none
attr recordingmode vector
attr source arrival
attr title "hop count"
vector 3 LN.lnd[1] hopCount:vector ETV
attr interpolationmode none
attr recordingmode vector
attr source arrival
attr title "hop count"
vector 4 LN.lnd[14] hopCount:vector ETV
attr interpolationmode none
attr recordingmode vector
attr source arrival
attr title "hop count"
vector 5 LN.lnd[6] hopCount:vector ETV
attr interpolationmode none
attr recordingmode vector
attr source arrival
attr title "hop count"
vector 6 LN.lnd[18] hopCount:vector ETV
attr interpolationmode none
attr recordingmode vector
attr source arrival
attr title "hop count"
vector 7 LN.lnd[12] hopCount:vector ETV
attr interpolationmode none
attr recordingmode vector
attr source arrival
attr title "hop count"
vector 8 LN.lnd[13] hopCount:vector ETV
attr interpolationmode none
attr recordingmode vector
attr source arrival
attr title "hop count"
vector 9 LN.lnd[0] hopCount:vector ETV
attr interpolationmode none
attr recordingmode vector
attr source arrival
attr title "hop count"
vector 10 LN.lnd[15] hopCount:vector ETV
attr interpolationmode none
attr recordingmode vector
attr source arrival
attr title "hop count"
vector 11 LN.lnd[9] hopCount:vector ETV
attr interpolationmode none
attr recordingmode vector
attr source arrival
attr title "hop count"
vector 12 LN.lnd[5] hopCount:vector ETV
attr interpolationmode none
attr recordingmode vector
attr source arrival
attr title "hop count"
vector 13 LN.lnd[16] hopCount:vector ETV
attr interpolationmode none
attr recordingmode vector
attr source arrival
attr title "hop count"
vector 14 LN.lnd[17] hopCount:vector ETV
attr interpolationmode none
attr recordingmode vector
attr source arrival
attr title "hop count"
vector 15 LN.lnd[7] hopCount:vector ETV
attr interpolationmode none
attr recordingmode vector
attr source arrival
attr title "hop count"
vector 16 LN.lnd[2] hopCount:vector ETV
attr interpolationmode none
attr recordingmode vector
attr source arrival
attr title "hop count"
vector 17 LN.lnd[10] hopCount:vector ETV
attr interpolationmode none
attr recordingmode vector
attr source arrival
attr title "hop count"
vector 18 LN.lnd[8] hopCount:vector ETV
attr interpolationmode none
attr recordingmode vector
attr source arrival
attr title "hop count"
vector 19 LN.lnd[4] hopCount:vector ETV
attr interpolationmode none
attr recordingmode vector
attr source arrival
attr title "hop count"
0	45	4.4	44
0	1355	135.4	74
0	1621	162	197
0	2647	264.6	17
0	2929	292.8	73
0	4213	421.2	180
0	4939	493.8	31
0	5259	525.8	317
0	5661	566	5
0	8013	801.2	119
0	8057	805.6	36
0	9505	950.4	87
0	10037	1003.6	14
0	10633	1063.2	19
0	12263	1226.2	188
0	12581	1258	19
0	15677	1567.6	13
0	16013	1601.2	105
0	16065	1606.4	50
0	16623	1662.2	75
0	17415	1741.4	325
0	18177	1817.6	3
0	18785	1878.4	40
0	18975	1897.4	37
0	20443	2044.2	61
0	20579	2057.8	17
0	23169	2316.8	202
0	23367	2336.6	41
0	24965	2496.4	9
0	25161	2516	67
0	30039	3003.8	32
0	30297	3029.6	237
0	30989	3098.8	38
0	31801	3180	21
0	34219	3421.8	139
0	34351	3435	123
0	36061	3606	33
0	37009	3700.8	118
0	37087	3708.6	22
0	37375	3737.4	6
0	37555	3755.4	45
0	39803	3980.2	69
0	40355	4035.4	13
0	40751	4075	50
0	40755	4075.4	2
0	45951	4595	22
0	46351	4635	8
0	48541	4854	13
0	48725	4872.4	21
0	48815	4881.4	24
0	50071	5007	5
0	54657	5465.6	89
0	54855	5485.4	19
0	57085	5708.4	17
0	57767	5776.6	9
0	58943	5894.2	8
0	60667	6066.6	7
0	61473	6147.2	155
0	63779	6377.8	8
0	64673	6467.2	187
0	65907	6590.6	77
0	66917	6691.6	126
0	67099	6709.8	51
0	67571	6757	17
0	67925	6792.4	28
0	70889	7088.8	54
0	72227	7222.6	16
0	73845	7384.4	65
0	75037	7503.6	48
0	76837	7683.6	89
0	78141	7814	19
0	78311	7831	147
0	82731	8273	73
0	85061	8506	28
0	85689	8568.8	91
0	86369	8636.8	4
0	86617	8661.6	82
0	86981	8698	96
0	91187	9118.6	55
0	92569	9256.8	234
0	97093	9709.2	103
0	97919	9791.8	39
0	99119	9911.8	30
0	100275	10027.4	2
0	100875	10087.4	14
0	101687	10168.6	86
0	101797	10179.6	97
0	106947	10694.6	185
0	107745	10774.4	84
0	108591	10859	5
0	111237	11123.6	129
0	115003	11500.2	11
0	116031	11603	2
0	118643	11864.2	81
0	119273	11927.2	10
0	120629	12062.8	41
0	121373	12137.2	23
0	123411	12341	163
0	124453	12445.2	44
0	125439	12543.8	131
0	126275	12627.4	7
0	129341	12934	9
0	129793	12979.2	8
0	131471	13147	31
0	132215	13221.4	5
0	132877	13287.6	60
0	133221	13322	77
0	135447	13544.6	17
0	135533	13553.2	21
0	136289	13628.8	13
0	137477	13747.6	45
0	137663	13766.2	28
0	138157	13815.6	145
0	140301	14030	130
0	142923	14292.2	54
0	144399	14439.8	3
0	144489	14448.8	58
0	145919	14591.8	76
0	147607	14760.6	9
0	148941	14894	140
0	150253	15025.2	7
0	150571	15057	89
0	152225	15222.4	160
0	155817	15581.6	15
0	156071	15607	15
0	156119	15611.8	15
0	156849	15684.8	13
0	160221	16022	71
0	160901	16090	74
0	161391	16139	21
0	161707	16170.6	54
0	163267	16326.6	157
0	164387	16438.6	204
0	165493	16549.2	12
0	167941	16794	93
0	168861	16886	5
0	169895	16989.4	44
0	171419	17141.8	73
0	173457	17345.6	65
0	174183	17418.2	25
0	175545	17554.4	1
0	176135	17613.4	105
0	177591	17759	115
0	178907	17890.6	73
0	179161	17916	13
0	179365	17936.4	76
0	179529	17952.8	87
0	179667	17966.6	73
0	180181	18018	120
0	180215	18021.4	30
0	183691	18369	113
0	184487	18448.6	56
0	186345	18634.4	39
0	186815	18681.4	169
0	186905	18690.4	48
0	188293	18829.2	73
0	189345	18934.4	19
0	189553	18955.2	40
0	190737	19073.6	57
0	191303	19130.2	25
0	193273	19327.2	4
0	194749	19474.8	13
0	194877	19487.6	15
0	198061	19806	111
0	199733	19973.2	100
0	203125	20312.4	7
0	203219	20321.8	33
0	209805	20980.4	4
0	210275	21027.4	53
0	210809	21080.8	15
0	211001	21100	2
0	213853	21385.2	14
0	214489	21448.8	1
0	214845	21484.4	10
0	216439	21643.8	9
0	218165	21816.4	54
0	218577	21857.6	150
0	220531	22053	128
0	222455	22245.4	6
0	222915	22291.4	85
0	223017	22301.6	67
0	224505	22450.4	7
0	224519	22451.8	12
0	225221	22522	12
0	227695	22769.4	7
0	228345	22834.4	8
0	231769	23176.8	15
0	234811	23481	50
0	235099	23509.8	97
0	236499	23649.8	12
0	237757	23775.6	14
0	240249	24024.8	51
0	240801	24080	111
0	243487	24348.6	9
0	243981	24398	84
0	246037	24603.6	106
0	249235	24923.4	1
0	249301	24930	6
0	251655	25165.4	23
0	252711	25271	62
0	252805	25280.4	39
0	252879	25287.8	61
0	252975	25297.4	15
0	253609	25360.8	17
0	257979	25797.8	195
0	258609	25860.8	39
0	259579	25957.8	25
0	259741	25974	5
0	261263	26126.2	291
0	262425	26242.4	11
0	263157	26315.6	45
0	263287	26328.6	2
0	265275	26527.4	30
0	266433	26643.2	112
0	267959	26795.8	31
0	269149	26914.8	15
0	269997	26999.6	78
0	270167	27016.6	85
0	272767	27276.6	1
0	272895	27289.4	72
0	273833	27383.2	3
0	274497	27449.6	7
0	274571	27457	11
0	276153	27615.2	145
0	277359	27735.8	56
0	278495	27849.4	92
0	278897	27889.6	65
0	279049	27904.8	97
0	280567	28056.6	98
0	280827	28082.6	2
0	281117	28111.6	14
0	281623	28162.2	44
0	286363	28636.2	28
0	286577	28657.6	18
0	286761	28676	31
0	287299	28729.8	41
0	288811	28881	319
0	290345	29034.4	31
0	291837	29183.6	34
0	295231	29523	10
0	295329	29532.8	38
0	297645	29764.4	14
0	297719	29771.8	37
0	298195	29819.4	2
0	298283	29828.2	24
0	298397	29839.6	39
0	299691	29969	94
0	303011	30301	3
0	303557	30355.6	148
0	303977	30397.6	105
0	304777	30477.6	169
0	307547	30754.6	53
0	308185	30818.4	18
0	310467	31046.6	197
0	312813	31281.2	16
0	312995	31299.4	90
0	313803	31380.2	20
0	315037	31503.6	8
0	315121	31512	79
0	315483	31548.2	49
0	317493	31749.2	10
0	318625	31862.4	42
0	320031	32003	216
0	320839	32083.8	22
0	322815	32281.4	55
0	323493	32349.2	152
0	323539	32353.8	36
0	323819	32381.8	42
0	326447	32644.6	33
0	327917	32791.6	2
0	330269	33026.8	135
0	332693	33269.2	21
0	333511	33351	87
0	334405	33440.4	21
0	335415	33541.4	47
0	339695	33969.4	1
0	340489	34048.8	80
0	342421	34242	56
0	342515	34251.4	74
0	344541	34454	20
0	345267	34526.6	191
0	347207	34720.6	8
0	347311	34731	18
0	349463	34946.2	17
0	350445	35044.4	12
0	351181	35118	81
0	352445	35244.4	50
0	358001	35800	20
0	358771	35877	41
0	359829	35982.8	59
0	360347	36034.6	107
0	361463	36146.2	59
0	365577	36557.6	269
0	365853	36585.2	147
0	366073	36607.2	75
0	366769	36676.8	67
0	368363	36836.2	6
0	368873	36887.2	83
0	369043	36904.2	30
0	369201	36920	24
0	369547	36954.6	36
0	370231	37023	25
0	370315	37031.4	78
0	373359	37335.8	65
0	374621	37462	112
0	374951	37495	98
0	375107	37510.6	56
0	380687	38068.6	57
0	383483	38348.2	44
0	386013	38601.2	6
0	390075	39007.4	19
0	390795	39079.4	1
0	391181	39118	13
0	396819	39681.8	91
0	397769	39776.8	276
0	398019	39801.8	5
0	398889	39888.8	5
0	399379	39937.8	17
0	399443	39944.2	49
0	400335	40033.4	79
0	401281	40128	22
0	402125	40212.4	82
0	403007	40300.6	43
0	404571	40457	22
0	405591	40559	16
0	405915	40591.4	132
0	405981	40598	27
0	407227	40722.6	150
0	408009	40800.8	44
0	408069	40806.8	56
0	408455	40845.4	3
0	410933	41093.2	31
0	411461	41146	38
0	411541	41154	53
0	413485	41348.4	54
0	415639	41563.8	64
0	415793	41579.2	58
0	417149	41714.8	42
0	421307	42130.6	16
0	421387	42138.6	9
0	422273	42227.2	51
0	423293	42329.2	18
0	424775	42477.4	12
0	424903	42490.2	46
0	426243	42624.2	262
0	430017	43001.6	34
0	430461	43046	3
0	431395	43139.4	29
0	435275	43527.4	17
0	436835	43683.4	29
0	437223	43722.2	55
0	437389	43738.8	129
0	438247	43824.6	11
0	438589	43858.8	1
0	439125	43912.4	104
0	442349	44234.8	126
0	445743	44574.2	2
0	447095	44709.4	137
0	447187	44718.6	29
0	448755	44875.4	100
0	449955	44995.4	57
0	450217	45021.6	65
0	455647	45564.6	72
0	455727	45572.6	12
0	456755	45675.4	90
0	457049	45704.8	5
0	460507	46050.6	184
0	461987	46198.6	30
0	462327	46232.6	54
0	462367	46236.6	11
0	463205	46320.4	53
0	463593	46359.2	68
0	465025	46502.4	103
0	465659	46565.8	44
0	467415	46741.4	147
0	469187	46918.6	64
0	470779	47077.8	61
0	471865	47186.4	14
0	472591	47259	7
0	473273	47327.2	158
0	473679	47367.8	167
0	475757	47575.6	136
0	476587	47658.6	3
0	478661	47866	43
0	478813	47881.2	3
0	479089	47908.8	13
0	479095	47909.4	2
0	484365	48436.4	173
0	485599	48559.8	75
0	486585	48658.4	20
0	488745	48874.4	8
0	490111	49011	21
0	491871	49187	30
0	493577	49357.6	13
0	495259	49525.8	294
0	497227	49722.6	89
0	497675	49767.4	10
0	499537	49953.6	21
0	500241	50024	124
0	500779	50077.8	35
0	501663	50166.2	63
0	502365	50236.4	31
0	505259	50525.8	126
0	509725	50972.4	99
0	512657	51265.6	65
0	513199	51319.8	9
0	515645	51564.4	145
0	517021	51702	121
0	517203	51720.2	130
0	517485	51748.4	171
0	520079	52007.8	100
0	521529	52152.8	36
0	522181	52218	45
0	522421	52242	72
0	523353	52335.2	60
0	523743	52374.2	209
0	524645	52464.4	71
0	526367	52636.6	1
0	526713	52671.2	96
0	527351	52735	76
0	529627	52962.6	27
0	530505	53050.4	69
0	533629	53362.8	39
0	540045	54004.4	42
0	541349	54134.8	6
0	541961	54196	11
0	543743	54374.2	101
0	545795	54579.4	95
0	546993	54699.2	190
0	548075	54807.4	159
0	553003	55300.2	70
0	554873	55487.2	60
0	555541	55554	16
0	555769	55576.8	40
0	556543	55654.2	35
0	556953	55695.2	27
0	558197	55819.6	153
0	561685	56168.4	50
0	563557	56355.6	32
0	564661	56466	33
0	565737	56573.6	101
0	565743	56574.2	4
0	567199	56719.8	24
0	567225	56722.4	21
0	570637	57063.6	187
0	571111	57111	4
0	573905	57390.4	10
0	575213	57521.2	6
0	577731	57773	74
0	579343	57934.2	24
0	580043	58004.2	65
0	581947	58194.6	20
0	582431	58243	6
0	582923	58292.2	17
0	583385	58338.4	78
0	583551	58355	91
0	585619	58561.8	161
0	586113	58611.2	13
0	589197	58919.6	152
0	590213	59021.2	4
0	590389	59038.8	53
0	591917	59191.6	162
0	593243	59324.2	7
0	594837	59483.6	73
0	596423	59642.2	81
0	600423	60042.2	14
0	600847	60084.6	81
0	601411	60141	52
0	603397	60339.6	143
0	605921	60592	67
0	607389	60738.8	9
0	608875	60887.4	29
0	610657	61065.6	38
0	610853	61085.2	50
0	610997	61099.6	92
0	613735	61373.4	24
0	613855	61385.4	34
0	615857	61585.6	2
0	616483	61648.2	23
0	616795	61679.4	1
0	616979	61697.8	14
0	617911	61791	158
0	620177	62017.6	72
0	620413	62041.2	49
0	623141	62314	23
0	625193	62519.2	217
0	628449	62844.8	64
0	629063	62906.2	56
0	630561	63056	72
0	630821	63082	35
0	633181	63318	45
0	633229	63322.8	12
0	635293	63529.2	31
0	635759	63575.8	27
0	636609	63660.8	21
0	636901	63690	86
0	639693	63969.2	233
0	640045	64004.4	61
0	640925	64092.4	36
0	641005	64100.4	41
0	641557	64155.6	18
0	642131	64213	66
0	644429	64442.8	50
0	644845	64484.4	11
0	645549	64554.8	25
0	646797	64679.6	7
0	647651	64765	50
0	647785	64778.4	112
0	648865	64886.4	111
0	649693	64969.2	17
0	652563	65256.2	67
0	653115	65311.4	12
0	653515	65351.4	163
0	653733	65373.2	196
0	654575	65457.4	73
0	654873	65487.2	254
0	655567	65556.6	93
0	656291	65629	1
0	656787	65678.6	186
0	660093	66009.2	29
0	662047	66204.6	31
0	663607	66360.6	3
0	664677	66467.6	22
0	665055	66505.4	74
0	666263	66626.2	81
0	669751	66975	11
0	669851	66985	38
0	671551	67155	199
0	672729	67272.8	10
0	672823	67282.2	31
0	674403	67440.2	1
0	675789	67578.8	5
0	677375	67737.4	89
0	677601	67760	24
0	679373	67937.2	14
0	681237	68123.6	67
0	681431	68143	7
0	682133	68213.2	27
0	683633	68363.2	9
0	684249	68424.8	159
0	685811	68581	46
0	686007	68600.6	17
0	686557	68655.6	48
0	686847	68684.6	62
0	687017	68701.6	77
0	688783	68878.2	25
0	691651	69165	10
0	692757	69275.6	81
0	693043	69304.2	8
0	694059	69405.8	8
0	694799	69479.8	115
0	695877	69587.6	108
0	696493	69649.2	24
0	696845	69684.4	48
0	697049	69704.8	50
0	698223	69822.2	127
0	698859	69885.8	46
0	701095	70109.4	16
0	704809	70480.8	20
0	705575	70557.4	70
0	705653	70565.2	5
0	708561	70856	13
0	711631	71163	28
0	713337	71333.6	64
0	713599	71359.8	24
0	721715	72171.4	71
0	724747	72474.6	99
0	726227	72622.6	78
0	726971	72697	15
0	727227	72722.6	3
0	728557	72855.6	42
0	729727	72972.6	207
0	730573	73057.2	84
0	730625	73062.4	50
0	736265	73626.4	63
0	736405	73640.4	118
0	736493	73649.2	33
0	737679	73767.8	89
0	737805	73780.4	91
0	738173	73817.2	16
0	739077	73907.6	28
0	739835	73983.4	75
0	742699	74269.8	71
0	743025	74302.4	52
0	745129	74512.8	2
0	745509	74550.8	27
0	746713	74671.2	75
0	748785	74878.4	52
0	749389	74938.8	49
0	749727	74972.6	24
0	753847	75384.6	88
0	756549	75654.8	6
0	758163	75816.2	68
0	758319	75831.8	76
0	758857	75885.6	4
0	759181	75918	40
0	760159	76015.8	28
0	760421	76042	88
0	760813	76081.2	53
0	761989	76198.8	127
0	763129	76312.8	9
0	763975	76397.4	12
0	764639	76463.8	10
0	766947	76694.6	176
0	767173	76717.2	31
0	767497	76749.6	83
0	768785	76878.4	12
0	771529	77152.8	194
0	772689	77268.8	113
0	772731	77273	4
0	773461	77346	131
0	775989	77598.8	69
0	776311	77631	84
0	778555	77855.4	42
0	778707	77870.6	131
0	780655	78065.4	98
0	781669	78166.8	37
0	782913	78291.2	15
0	786453	78645.2	3
0	786579	78657.8	57
0	787129	78712.8	99
0	787807	78780.6	6
0	789197	78919.6	23
0	789567	78956.6	37
0	790849	79084.8	39
0	791029	79102.8	166
0	791163	79116.2	22
0	792335	79233.4	97
0	793697	79369.6	143
0	794591	79459	64
0	796579	79657.8	29
0	798645	79864.4	79
0	799021	79902	90
0	800469	80046.8	5
0	801255	80125.4	27
0	802523	80252.2	19
0	803605	80360.4	81
0	803875	80387.4	99
0	804291	80429	24
0	805927	80592.6	58
0	807349	80734.8	17
0	808485	80848.4	306
0	812357	81235.6	21
0	812863	81286.2	25
0	813037	81303.6	45
0	815897	81589.6	89
0	818353	81835.2	25
0	820017	82001.6	74
0	820911	82091	43
0	821209	82120.8	204
0	821399	82139.8	52
0	821497	82149.6	46
0	822147	82214.6	183
0	824091	82409	218
0	824245	82424.4	48
0	824637	82463.6	42
0	826133	82613.2	92
0	826449	82644.8	23
0	827303	82730.2	74
0	828541	82854	35
0	830429	83042.8	12
0	831469	83146.8	196
0	831993	83199.2	30
0	832279	83227.8	13
0	832599	83259.8	212
0	833531	83353	75
0	839793	83979.2	85
0	841377	84137.6	66
0	843549	84354.8	56
0	843621	84362	29
0	843751	84375	107
0	844145	84414.4	16
0	846027	84602.6	48
0	847667	84766.6	11
0	848117	84811.6	2
0	850371	85037	45
0	850997	85099.6	79
0	852139	85213.8	69
0	853557	85355.6	12
0	855281	85528	3
0	856117	85611.6	22
0	857845	85784.4	2
0	861785	86178.4	3
0	862695	86269.4	4
0	863977	86397.6	42
0	865665	86566.4	13
0	865705	86570.4	25
0	867613	86761.2	98
0	869073	86907.2	30
0	869399	86939.8	3
0	870409	87040.8	28
0	873513	87351.2	32
0	873915	87391.4	119
0	876429	87642.8	35
0	877415	87741.4	1
0	878209	87820.8	23
0	878229	87822.8	2
0	879751	87975	5
0	889513	88951.2	32
0	892081	89208	117
0	892423	89242.2	178
0	892503	89250.2	15
0	893209	89320.8	55
0	894629	89462.8	114
0	896749	89674.8	10
0	897619	89761.8	19
0	898185	89818.4	1
0	901471	90147	162
0	901729	90172.8	63
0	902607	90260.6	1
0	904187	90418.6	67
0	904967	90496.6	33
0	906225	90622.4	33
0	908403	90840.2	6
0	911511	91151	39
0	911737	91173.6	22
0	915439	91543.8	218
0	916497	91649.6	235
0	918547	91854.6	16
0	922895	92289.4	157
0	924215	92421.4	69
0	924683	92468.2	54
0	926291	92629	39
0	926939	92693.8	3
0	927699	92769.8	10
0	927967	92796.6	143
0	928953	92895.2	17
0	929255	92925.4	36
0	930037	93003.6	13
0	932019	93201.8	85
0	932895	93289.4	82
0	933621	93362	176
0	935447	93544.6	106
0	938861	93886	20
0	941737	94173.6	13
0	942563	94256.2	11
0	943193	94319.2	243
0	945883	94588.2	44
0	950435	95043.4	122
0	951871	95187	217
0	952955	95295.4	31
0	954869	95486.8	108
0	955437	95543.6	40
0	956319	95631.8	17
0	957203	95720.2	11
0	959805	95980.4	21
0	959955	95995.4	37
0	964291	96429	3
0	964609	96460.8	52
0	966767	96676.6	169
0	969145	96914.4	200
0	969353	96935.2	83
0	971717	97171.6	37
0	973149	97314.8	19
0	973299	97329.8	45
0	974293	97429.2	63
0	981433	98143.2	36
0	981595	98159.4	58
0	981859	98185.8	14
0	982309	98230.8	80
0	983973	98397.2	42
0	984413	98441.2	40
0	985185	98518.4	123
0	985473	98547.2	14
0	987759	98775.8	47
0	988443	98844.2	112
0	988529	98852.8	83
0	989313	98931.2	3
0	989407	98940.6	75
0	989699	98969.8	67
0	991597	99159.6	14
0	992721	99272	62
0	992723	99272.2	1
0	993699	99369.8	70
0	994433	99443.2	30
0	994553	99455.2	29
0	995191	99519	67
0	996039	99603.8	9
0	998051	99805	102
0	998093	99809.2	7
0	999393	99939.2	30
0	999851	99985	19
0	1000231	100023	2
0	1000637	100063.6	39
0	1004771	100477	9
0	1005603	100560.2	70
0	1005713	100571.2	14
0	1008071	100807	58
0	1010171	101017	12
0	1010663	101066.2	77
0	1012001	101200	25
0	1013135	101313.4	25
0	1013509	101350.8	155
0	1014465	101446.4	173
0	1014815	101481.4	136
0	1014951	101495	95
0	1015743	101574.2	110
0	1016217	101621.6	48
0	1016357	101635.6	3
0	1017285	101728.4	26
0	1019235	101923.4	19
0	1024987	102498.6	10
0	1028201	102820	17
0	1028291	102829	44
0	1028565	102856.4	1
0	1029221	102922	57
0	1030553	103055.2	33
0	1030979	103097.8	7
0	1033357	103335.6	16
0	1034477	103447.6	25
0	1035395	103539.4	59
0	1038843	103884.2	35
0	1039797	103979.6	10
0	1041287	104128.6	22
0	1041407	104140.6	35
0	1041775	104177.4	10
0	1047055	104705.4	17
0	1047149	104714.8	29
0	1051901	105190	13
0	1053073	105307.2	71
0	1053149	105314.8	33
0	1054741	105474	199
0	1055081	105508	47
0	1055871	105587	6
0	1057627	105762.6	33
0	1058307	105830.6	159
0	1062011	106201	13
0	1062403	106240.2	33
0	1063251	106325	21
0	1063529	106352.8	9
0	1066651	106665	23
0	1066679	106667.8	13
0	1067403	106740.2	151
0	1070159	107015.8	14
0	1070497	107049.6	56
0	1072391	107239	65
0	1073199	107319.8	57
0	1075503	107550.2	54
0	1078113	107811.2	11
0	1078493	107849.2	4
0	1080059	108005.8	29
0	1084879	108487.8	4
0	1086013	108601.2	129
0	1086681	108668	32
0	1087405	108740.4	29
0	1087641	108764	59
0	1090865	109086.4	48
0	1091243	109124.2	75
0	1093233	109323.2	24
0	1094057	109405.6	26
0	1095667	109566.6	39
0	1096251	109625	38
0	1098933	109893.2	308
0	1099599	109959.8	171
0	1100005	110000.4	87
0	1100517	110051.6	91
0	1103211	110321	27
0	1103951	110395	24
0	1105657	110565.6	129
0	1106919	110691.8	160
0	1107183	110718.2	29
0	1111049	111104.8	24
0	1111259	111125.8	14
0	1111783	111178.2	61
0	1113703	111370.2	136
0	1114365	111436.4	27
0	1115707	111570.6	53
0	1116603	111660.2	142
0	1118063	111806.2	113
0	1118213	111821.2	12
0	1119929	111992.8	24
0	1120977	112097.6	18
0	1122135	112213.4	149
0	1123005	112300.4	27
0	1123227	112322.6	4
0	1124989	112498.8	49
0	1128055	112805.4	95
0	1131139	113113.8	46
0	1136365	113636.4	95
0	1138293	113829.2	6
0	1139325	113932.4	6
0	1139905	113990.4	60
0	1145179	114517.8	45
0	1146029	114602.8	132
0	1147863	114786.2	9
0	1148151	114815	8
0	1151521	115152	63
0	1151793	115179.2	123
0	1152621	115262	55
0	1156907	115690.6	11
0	1158329	115832.8	4
0	1159301	115930	28
0	1160741	116074	48
0	1161253	116125.2	98
0	1162123	116212.2	2
0	1163795	116379.4	59
0	1164455	116445.4	92
0	1164749	116474.8	37
0	1165405	116540.4	239
0	1167441	116744	80
0	1169893	116989.2	27
0	1170023	117002.2	38
0	1170713	117071.2	15
0	1170793	117079.2	29
0	1171287	117128.6	105
0	1172651	117265	5
0	1176415	117641.4	61
0	1176555	117655.4	28
0	1177831	117783	30
0	1179091	117909	72
0	1180919	118091.8	127
0	1181679	118167.8	100
0	1183629	118362.8	158
0	1183883	118388.2	28
0	1187715	118771.4	46
0	1188411	118841	11
0	1191691	119169	30
0	1192147	119214.6	11
0	1194981	119498	56
0	1196049	119604.8	126
0	1198485	119848.4	28
0	1199221	119922	15
0	1199327	119932.6	40
0	1199713	119971.2	33
0	1200949	120094.8	19
0	1203733	120373.2	130
0	1203847	120384.6	30
0	1205029	120502.8	301
0	1205995	120599.4	17
0	1212479	121247.8	32
0	1214781	121478	172
0	1216213	121621.2	56
0	1217795	121779.4	11
0	1220709	122070.8	111
0	1225733	122573.2	4
0	1226039	122603.8	100
0	1226543	122654.2	5
0	1226687	122668.6	64
0	1227011	122701	13
0	1227721	122772	61
0	1228681	122868	13
0	1228751	122875	6
0	1229123	122912.2	55
0	1230371	123037	41
0	1233909	123390.8	44
0	1235281	123528	7
0	1236643	123664.2	23
0	1236645	123664.4	1
0	1238669	123866.8	113
0	1240961	124096	110
0	1241289	124128.8	52
0	1241703	124170.2	58
0	1243303	124330.2	29
0	1243489	124348.8	21
0	1244361	124436	21
0	1244479	124447.8	67
0	1244981	124498	27
0	1252333	125233.2	63
0	1254191	125419	74
0	1254497	125449.6	16
0	1261155	126115.4	96
0	1261275	126127.4	14
0	1261519	126151.8	53
0	1262993	126299.2	139
0	1263111	126311	109
0	1263475	126347.4	22
0	1265703	126570.2	52
0	1266599	126659.8	59
0	1268925	126892.4	31
0	1269845	126984.4	105
0	1272009	127200.8	49
0	1273389	127338.8	49
0	1274847	127484.6	105
0	1275263	127526.2	56
0	1276681	127668	66
0	1277115	127711.4	6
0	1277967	127796.6	52
0	1278087	127808.6	37
0	1278577	127857.6	155
0	1279067	127906.6	36
0	1280533	128053.2	44
0	1281099	128109.8	6
0	1282025	128202.4	9
0	1283223	128322.2	17
0	1285009	128500.8	55
0	1287981	128798	121
0	1288003	128800.2	7
0	1289701	128970	19
0	1290165	129016.4	15
0	1291103	129110.2	55
0	1291147	129114.6	25
0	1293513	129351.2	18
0	1299269	129926.8	88
0	1301751	130175	103
0	1302663	130266.2	53
0	1305389	130538.8	3
0	1305781	130578	97
0	1306105	130610.4	85
0	1306295	130629.4	46
0	1306473	130647.2	19
0	1307695	130769.4	74
0	1308335	130833.4	16
0	1308957	130895.6	101
0	1309229	130922.8	49
0	1310725	131072.4	114
0	1312055	131205.4	162
0	1314671	131467	4
0	1314853	131485.2	10
0	1314867	131486.6	10
0	1315521	131552	209
0	1315897	131589.6	88
0	1317617	131761.6	11
0	1318231	131823	25
0	1318663	131866.2	11
0	1319735	131973.4	82
0	1324143	132414.2	146
0	1324643	132464.2	41
0	1329945	132994.4	148
0	1330601	133060	8
0	1334795	133479.4	59
0	1335913	133591.2	86
0	1337879	133787.8	40
0	1338925	133892.4	174
0	1344029	134402.8	144
0	1344539	134453.8	12
0	1345667	134566.6	36
0	1346205	134620.4	125
0	1346249	134624.8	40
0	1346311	134631	16
0	1348079	134807.8	55
0	1348877	134887.6	135
0	1348961	134896	82
0	1351849	135184.8	160
0	1352379	135237.8	5
0	1352841	135284	29
0	1353435	135343.4	7
0	1353765	135376.4	48
0	1354443	135444.2	93
0	1356327	135632.6	79
0	1357177	135717.6	66
0	1357735	135773.4	15
0	1360525	136052.4	53
0	1361419	136141.8	96
0	1362905	136290.4	22
0	1363979	136397.8	73
0	1364283	136428.2	13
0	1366417	136641.6	80
0	1368041	136804	24
0	1368597	136859.6	6
0	1371057	137105.6	17
0	1372059	137205.8	5
0	1373699	137369.8	21
0	1374695	137469.4	68
0	1374979	137497.8	52
0	1376287	137628.6	218
0	1377787	137778.6	7
0	1378611	137861	28
0	1379001	137900	190
0	1379723	137972.2	159
0	1380833	138083.2	23
0	1385861	138586	177
0	1388687	138868.6	33
0	1389549	138954.8	313
0	1390035	139003.4	42
0	1391443	139144.2	7
0	1392225	139222.4	15
0	1392707	139270.6	58
0	1393033	139303.2	19
0	1394079	139407.8	17
0	1395045	139504.4	24
0	1397215	139721.4	154
0	1398069	139806.8	102
0	1398235	139823.4	9
0	1398613	139861.2	89
0	1399321	139932	9
0	1399481	139948	76
0	1402157	140215.6	3
0	1403271	140327	135
0	1404005	140400.4	207
0	1405649	140564.8	64
0	1406075	140607.4	116
0	1406305	140630.4	138
0	1408767	140876.6	202
0	1409517	140951.6	126
0	1412703	141270.2	118
0	1412921	141292	61
0	1417527	141752.6	2
0	1418157	141815.6	25
0	1418555	141855.4	50
0	1418781	141878	70
0	1419275	141927.4	145
0	1419529	141952.8	23
0	1423173	142317.2	42
0	1423867	142386.6	18
0	1425035	142503.4	1
0	1425577	142557.6	148
0	1425921	142592	67
0	1426173	142617.2	21
0	1426803	142680.2	11
0	1428389	142838.8	15
0	1430269	143026.8	12
0	1431375	143137.4	99
0	1432613	143261.2	40
0	1433739	143373.8	5
0	1434161	143416	3
0	1435353	143535.2	14
0	1438599	143859.8	131
0	1439157	143915.6	39
0	1440621	144062	86
0	1442561	144256	4
0	1442699	144269.8	49
0	1443375	144337.4	1
0	1444357	144435.6	35
0	1446657	144665.6	30
0	1447947	144794.6	83
0	1449529	144952.8	68
0	1450787	145078.6	28
0	1453971	145397	80
0	1455327	145532.6	80
0	1456463	145646.2	49
0	1458237	145823.6	134
0	1458679	145867.8	50
0	1458863	145886.2	21
0	1460237	146023.6	110
0	1464739	146473.8	2
0	1465133	146513.2	5
0	1468047	146804.6	22
0	1468289	146828.8	8
0	1469631	146963	94
0	1470233	147023.2	132
0	1470993	147099.2	35
0	1471599	147159.8	33
0	1471979	147197.8	10
0	1472697	147269.6	221
0	1473497	147349.6	73
0	1474071	147407	106
0	1476525	147652.4	40
0	1477291	147729	36
0	1477455	147745.4	113
0	1479003	147900.2	18
0	1479237	147923.6	25
0	1480029	148002.8	4
0	1481049	148104.8	24
0	1482347	148234.6	14
0	1484449	148444.8	15
0	1486197	148619.6	41
0	1488411	148841	43
0	1492083	149208.2	1
0	1494333	149433.2	149
0	1495189	149518.8	55
0	1498025	149802.4	63
0	1499745	149974.4	4
0	1500289	150028.8	2
0	1501543	150154.2	42
0	1501653	150165.2	10
0	1503533	150353.2	44
0	1504029	150402.8	109
0	1504225	150422.4	78
0	1504273	150427.2	44
0	1504525	150452.4	83
0	1507399	150739.8	111
0	1508571	150857	26
0	1509453	150945.2	9
0	1510009	151000.8	54
0	1510607	151060.6	131
0	1511239	151123.8	49
0	1511851	151185	21
0	1516979	151697.8	7
0	1517611	151761	3
0	1518599	151859.8	12
0	1520677	152067.6	169
0	1521059	152105.8	65
0	1523851	152385	53
0	1531717	153171.6	19
0	1532421	153242	170
0	1533471	153347	42
0	1536023	153602.2	152
0	1536363	153636.2	10
0	1537033	153703.2	72
0	1537453	153745.2	11
0	1537869	153786.8	339
0	1539851	153985	62
0	1542851	154285	3
0	1543457	154345.6	174
0	1545069	154506.8	88
0	1546189	154618.8	183
0	1546413	154641.2	105
0	1547073	154707.2	28
0	1547587	154758.6	351
0	1548143	154814.2	64
0	1548933	154893.2	95
0	1550191	155019	21
0	1552383	155238.2	12
0	1554985	155498.4	3
0	1555653	155565.2	95
0	1555819	155581.8	130
0	1556053	155605.2	109
0	1556835	155683.4	9
0	1557707	155770.6	4
0	1558309	155830.8	69
0	1559961	155996	18
0	1561527	156152.6	123
0	1562985	156298.4	13
0	1563213	156321.2	187
0	1563407	156340.6	64
0	1564805	156480.4	16
0	1566695	156669.4	65
0	1568965	156896.4	39
0	1570027	157002.6	79
0	1570173	157017.2	11
0	1573091	157309	3
0	1573569	157356.8	20
0	1576245	157624.4	4
0	1576625	157662.4	48
0	1578251	157825	31
0	1579623	157962.2	55
0	1581115	158111.4	122
0	1581317	158131.6	75
0	1581739	158173.8	14
0	1583173	158317.2	37
0	1583283	158328.2	21
0	1584359	158435.8	43
0	1590311	159031	1
0	1590945	159094.4	39
0	1594299	159429.8	63
0	1595481	159548	16
0	1595879	159587.8	23
0	1600023	160002.2	76
0	1601397	160139.6	63
0	1602055	160205.4	77
0	1604163	160416.2	22
0	1604965	160496.4	44
0	1605211	160521	10
0	1609477	160947.6	88
0	1610041	161004	65
0	1610125	161012.4	15
0	1614649	161464.8	273
0	1615287	161528.6	68
0	1615405	161540.4	61
0	1620645	162064.4	7
0	1620811	162081	35
0	1622871	162287	45
0	1623269	162326.8	14
0	1623819	162381.8	38
0	1624421	162442	59
0	1626919	162691.8	76
0	1628251	162825	28
0	1629241	162924	103
0	1634259	163425.8	46
0	1636179	163617.8	4
0	1636859	163685.8	8
0	1637127	163712.6	115
0	1637295	163729.4	56
0	1641533	164153.2	95
0	1641809	164180.8	97
0	1641951	164195	47
0	1642517	164251.6	19
0	1645681	164568	7
0	1652053	165205.2	93
0	1653023	165302.2	62
0	1653311	165331	37
0	1654321	165432	18
0	1654395	165439.4	16
0	1654461	165446	13
0	1654497	165449.6	11
0	1655255	165525.4	64
0	1656031	165603	21
0	1659453	165945.2	34
0	1659561	165956	72
0	1661213	166121.2	56
0	1661737	166173.6	171
0	1668451	166845	109
0	1668917	166891.6	50
0	1670079	167007.8	139
0	1670401	167040	28
0	1673187	167318.6	35
0	1673471	167347	53
0	1673693	167369.2	64
0	1676249	167624.8	36
0	1677003	167700.2	102
0	1677117	167711.6	19
0	1678259	167825.8	18
0	1678873	167887.2	18
0	1680341	168034	31
0	1682663	168266.2	16
0	1683909	168390.8	90
0	1684091	168409	50
0	1684443	168444.2	92
0	1690387	169038.6	87
0	1690607	169060.6	111
0	1692373	169237.2	84
0	1693659	169365.8	45
0	1698023	169802.2	6
0	1698245	169824.4	38
0	1698915	169891.4	4
0	1699443	169944.2	130
0	1700179	170017.8	49
0	1700229	170022.8	6
0	1701251	170125	32
0	1701909	170190.8	24
0	1702127	170212.6	31
0	1703369	170336.8	76
0	1706467	170646.6	40
0	1709171	170917	28
0	1709249	170924.8	41
0	1710437	171043.6	189
0	1711915	171191.4	54
0	1712339	171233.8	11
0	1713407	171340.6	35
0	1717171	171717	33
0	1717897	171789.6	169
0	1719245	171924.4	17